# Region type : patch sidenode2U_0_Inlet_0
#   Faces  : 172
#   Area   : 1.728441e-02
#        Time	areaAverage(T)
     0.999427	3.001500e+02
      2.00049	3.001500e+02
      3.00031	3.001500e+02
      3.99974	3.001500e+02
     4.999837	3.001500e+02
      6.00101	3.001500e+02
     7.000448	3.001499e+02
     8.000372	3.001498e+02
     9.000012	3.001496e+02
   10.0011397	3.001493e+02
   11.0005125	3.001490e+02
   12.0006256	3.001490e+02
   13.0011117	3.001491e+02
   13.9997545	3.001488e+02
 14.999678163	3.001443e+02
 15.999607758	3.001269e+02
 17.001423079	3.001053e+02
 18.000125537	3.000996e+02
 19.000241824	3.001084e+02
20.0017637999	3.001199e+02
20.9996095701	3.001301e+02
22.0019702438	3.001392e+02
 22.999320956	3.001469e+02
24.0004117324	3.001536e+02
25.001912685444	3.001601e+02
26.000815381156	3.001670e+02
27.000616308207	3.001745e+02
28.001753186764	3.001824e+02
29.00103025218	3.001906e+02
30.00096884102414	3.001989e+02
31.0010466924629	3.002073e+02
32.00076191534071	3.002158e+02
32.99994752892779	3.002248e+02
34.00185910390489	3.002344e+02
35.00094148549404	3.002450e+02
36.0007323908276	3.002565e+02
37.00168518983952	3.002686e+02
38.00099208641546	3.002806e+02
39.00157851096972	3.002921e+02
39.9996303786337393	3.003029e+02
41.0004953412502999	3.003132e+02
42.0009070206368165	3.003234e+02
43.0008319248529602	3.003339e+02
44.0005488391913389	3.003452e+02
45.0006530563491651	3.003574e+02
46.0017181984809156	3.003703e+02
47.0009495583614481	3.003835e+02
48.0018396077909131	3.003970e+02
49.0015515004562801	3.004103e+02
49.9999329171132274	3.004234e+02
50.9997297372635359	3.004362e+02
52.0007723885163031	3.004485e+02
52.9999861900431952	3.004603e+02
54.0004187036915866	3.004718e+02
55.0020986480979488	3.004830e+02
56.0018978015979485	3.004940e+02
56.9997709032349675	3.005050e+02
58.0017761736346387	3.005161e+02
59.0015984460411929	3.005273e+02
60.0021521568440548	3.005387e+02
61.000098740020384	3.005503e+02
62.0012673557279967	3.005622e+02
63.0022013247344859	3.005742e+02
63.9994497110408744	3.005864e+02
65.002054107660129	3.005987e+02
66.0007129160335353	3.006110e+02
67.001732642028287	3.006233e+02
68.0022184161371825	3.006356e+02
69.0023282304698569	3.006478e+02
70.0020967323733316	3.006598e+02
71.0014626894989078	3.006716e+02
72.000347206961905	3.006831e+02
73.001814536130297	3.006944e+02
73.999803696464312	3.007053e+02
75.0005142580166506	3.007161e+02
76.0009472599216451	3.007267e+02
77.0010967364421219	3.007373e+02
78.0008778649198149	3.007479e+02
79.0002325173825	3.007587e+02
80.0023181581406391	3.007698e+02
81.0010950209574219	3.007814e+02
81.9997182112844456	3.007936e+02
83.0013300977933284	3.008063e+02
83.9999391470229	3.008196e+02
85.0018435010252347	3.008336e+02
86.0008606208824204	3.008479e+02
86.9999880338603901	3.008626e+02
88.0020037995171407	3.008774e+02
89.0004046785960838	3.008921e+02
90.0010837849391692	3.009066e+02
91.0008285090756743	3.009208e+02
91.9994646174541089	3.009347e+02
93.0000853875089604	3.009485e+02
93.9995910128285601	3.009623e+02
95.0012163098537314	3.009762e+02
96.0020133773239053	3.009902e+02
97.0020574698554583	3.010046e+02
98.0014642115947225	3.010193e+02
99.0003686226269366	3.010344e+02
100.001947089189784	3.010501e+02
101.000271179902313	3.010661e+02
102.001523406674536	3.010825e+02
102.99969570444479	3.010991e+02
104.000908865614974	3.011159e+02
105.002152263136153	3.011326e+02
106.000378067992287	3.011493e+02
107.00163414543087	3.011660e+02
107.999820550515125	3.011824e+02
109.000984406227602	3.011988e+02
110.002068239247023	3.012150e+02
111.00001858391191	3.012311e+02
112.000888836224746	3.012471e+02
113.001617997014293	3.012629e+02
114.002209263695818	3.012785e+02
114.99960718464024	3.012939e+02
115.999872131530168	3.013091e+02
116.999973228238687	3.013241e+02
117.999915759184802	3.013389e+02
118.999696297663988	3.013534e+02
120.002346978990104	3.013677e+02
121.001802203412097	3.013814e+02
122.001089430002338	3.013948e+02
123.000195781257958	3.014077e+02
124.002145808338966	3.014201e+02
125.00086390218344	3.014321e+02
126.002399932855283	3.014440e+02
127.000675423971757	3.014557e+02
128.001718892295969	3.014672e+02
129.002474220212093	3.014783e+02
129.999899023642627	3.014889e+02
131.000022883252541	3.014990e+02
131.99980357745423	3.015089e+02
133.002201975843775	3.015184e+02
134.00121011720671	3.015276e+02
134.999895059076891	3.015365e+02
136.001354881184824	3.015452e+02
136.999671981025131	3.015534e+02
138.001014733980639	3.015609e+02
138.999511912610359	3.015674e+02
140.001372693757475	3.015722e+02
141.000721369328062	3.015748e+02
142.000678826319387	3.015751e+02
143.001410269753791	3.015741e+02
144.000025124920398	3.015729e+02
144.999619595327431	3.015713e+02
146.0002268439452	3.015686e+02
147.001934284146188	3.015635e+02
148.00171385002426	3.015556e+02
148.999570758778503	3.015454e+02
150.001460268790225	3.015343e+02
151.001471625160036	3.015236e+02
151.999643271126928	3.015139e+02
153.002234693194737	3.015048e+02
154.000017083123623	3.014966e+02
155.002075368657557	3.014890e+02
156.002171319720389	3.014824e+02
157.000201221534894	3.014777e+02
158.002214270236891	3.014764e+02
159.002025935581884	3.014804e+02
159.999611888222489	3.014896e+02
161.001110797304506	3.015018e+02
162.000431518502523	3.015143e+02
163.000598996626394	3.015274e+02
164.001657526757469	3.015431e+02
165.000611927010681	3.015615e+02
166.000636570257399	3.015810e+02
167.001966936224989	3.016003e+02
168.001524024576383	3.016194e+02
168.999535062912372	3.016387e+02
170.002373244580212	3.016579e+02
171.000526233348893	3.016752e+02
171.999938935686771	3.016892e+02
173.000419891909644	3.016994e+02
174.001722928412619	3.017051e+02
175.000512625435874	3.017037e+02
175.999767070886492	3.016925e+02
176.99954079770464	3.016668e+02
178.000007481480537	3.016242e+02
179.001172133937928	3.015767e+02
179.999682450687942	3.015404e+02
181.001635694069051	3.015142e+02
182.000592152761328	3.014851e+02
182.999519896950915	3.014524e+02
184.00124781430452	3.014315e+02
185.002486385811778	3.014324e+02
186.000255045406107	3.014467e+02
187.001127013245792	3.014639e+02
188.002072581649884	3.014814e+02
188.999892205631966	3.014992e+02
190.000705973510435	3.015151e+02
191.001383975613464	3.015252e+02
192.002166445431158	3.015285e+02
193.000098668779714	3.015268e+02
194.001181195154828	3.015261e+02
195.001620137572985	3.015342e+02
196.001178650808271	3.015516e+02
197.000350796765275	3.015660e+02
197.999660542726929	3.015628e+02
199.002335025356558	3.015431e+02
200.001935586922144	3.015131e+02
201.001414943333913	3.014718e+02
202.000868928127431	3.014257e+02
202.999997842964206	3.013828e+02
204.0016310147914	3.013439e+02
205.002166413694084	3.013103e+02
206.001116309208413	3.012816e+02
207.001381956321211	3.012521e+02
207.9998943985035	3.012230e+02
208.999583940723255	3.011949e+02
209.99984336437123	3.011675e+02
211.000998253438354	3.011417e+02
212.000320780333084	3.011216e+02
213.000148791994746	3.011073e+02
214.000519730077229	3.010965e+02
215.000147433256899	3.010884e+02
216.001291672560797	3.010871e+02
217.001249723514121	3.010914e+02
218.002346265045077	3.010986e+02
219.001117517151101	3.011121e+02
220.000179332863723	3.011325e+02
221.001984233296611	3.011558e+02
222.000019298464537	3.011808e+02
223.000472483728515	3.012077e+02
224.000035929419795	3.012326e+02
225.001538814148404	3.012534e+02
226.002232348217717	3.012724e+02
227.002169872115275	3.012882e+02
228.000958699243625	3.012964e+02
229.001727466383443	3.012984e+02
230.001349947985972	3.012971e+02
230.99980440953388	3.012875e+02
232.000658677140137	3.012698e+02
233.000406829737074	3.012484e+02
234.001889288894915	3.012203e+02
234.999987857891028	3.011828e+02
236.000824748772231	3.011399e+02
237.00126402941325	3.010906e+02
238.001397825822721	3.010345e+02
239.001659752754847	3.009753e+02
240.002266841204374	3.009156e+02
241.000261468869382	3.008576e+02
242.001944879210811	3.008043e+02
243.001454555426477	3.007636e+02
244.001972006663124	3.007386e+02
245.000650011113038	3.007316e+02
246.000794019596583	3.007438e+02
246.999515043074808	3.007715e+02
247.999991685574656	3.008072e+02
249.002356430929581	3.008437e+02
250.000565355472645	3.008762e+02
251.000732934448166	3.009038e+02
251.999708502626078	3.009286e+02
253.000512989818787	3.009510e+02
253.999885102590099	3.009673e+02
255.001070266916685	3.009824e+02
256.000839560378154	3.010015e+02
257.002428650690433	3.010236e+02
257.999811689606702	3.010501e+02
259.001750639557088	3.010833e+02
260.001118134239789	3.011205e+02
261.0003499609453	3.011586e+02
262.002242301688852	3.011956e+02
263.00038849849949	3.012288e+02
264.000905347231651	3.012584e+02
265.000507148832071	3.012837e+02
266.001962269527269	3.013023e+02
267.001916114889923	3.013118e+02
268.000509559255079	3.013114e+02
269.000928206782703	3.013011e+02
270.000007865947964	3.012791e+02
271.000424375674072	3.012463e+02
272.001918020223684	3.012064e+02
273.001711716248963	3.011643e+02
274.000259563707004	3.011241e+02
275.001150352234959	3.010877e+02
276.001368364580856	3.010547e+02
277.000464361424179	3.010227e+02
278.001159856900301	3.009918e+02
279.000440219970642	3.009630e+02
280.001416704900123	3.009371e+02
281.001363233582481	3.009132e+02
282.000450491904587	3.008909e+02
283.001441506528238	3.008703e+02
284.000898257364383	3.008491e+02
285.001884224806759	3.008228e+02
286.001695158509449	3.007918e+02
287.00083686584918	3.007562e+02
287.999779922023777	3.007149e+02
289.00217000750348	3.006689e+02
289.999818932370886	3.006216e+02
291.002390998074702	3.005745e+02
292.000324383956922	3.005288e+02
293.002281315476978	3.004824e+02
294.001828078367453	3.004350e+02
295.001611671774583	3.003875e+02
296.001314901285866	3.003385e+02
297.00088689875497	3.002901e+02
298.00038530568753	3.002471e+02
298.99979428595401	3.002188e+02
300.002174996140184	3.002220e+02
301.001629792814299	3.002734e+02
302.001459111373606	3.003619e+02
303.001930965865313	3.004560e+02
304.000231942945902	3.005366e+02
304.999558167453529	3.006029e+02
305.999740373459133	3.006559e+02
307.00049372421114	3.006929e+02
308.001623502406176	3.007127e+02
308.999886381099657	3.007195e+02
310.001413061204403	3.007191e+02
311.000237423209796	3.007155e+02
311.999647676510733	3.007116e+02
312.999797447474521	3.007088e+02
314.00077313436168	3.007074e+02
314.999478399374595	3.007061e+02
316.001990115735566	3.007022e+02
317.001905398249903	3.006931e+02
318.002171419029537	3.006762e+02
318.999812552419371	3.006505e+02
320.001245077814531	3.006180e+02
321.00032755763084	3.005860e+02
321.999810468384169	3.005590e+02
322.99953236046241	3.005385e+02
324.002261250268589	3.005293e+02
325.00131355461167	3.005330e+02
325.999607697640556	3.005463e+02
327.000043180232751	3.005644e+02
328.002412231241237	3.005855e+02
329.000458313912361	3.006074e+02
330.000575270518993	3.006266e+02
330.99988426793476	3.006452e+02
332.001383612835525	3.006657e+02
333.002008264080985	3.006855e+02
334.00191188491641	3.007006e+02
335.00115025317632	3.007064e+02
335.999693180028885	3.006943e+02
337.000793258894248	3.006563e+02
338.001952926178944	3.005947e+02
339.000304708887768	3.005167e+02
340.002014322204161	3.004335e+02
341.001025424621218	3.003527e+02
342.00024299366703	3.002807e+02
342.999464099637976	3.002219e+02
344.001543545480956	3.001759e+02
345.000291069840671	3.001430e+02
346.001795610644365	3.001254e+02
346.999927843140654	3.001285e+02
348.000987026071982	3.001602e+02
349.002165312943305	3.002272e+02
350.000459537454105	3.003239e+02
351.001932414771431	3.004200e+02
352.000442991369937	3.004972e+02
353.002185159184023	3.005481e+02
354.000931348699794	3.005774e+02
354.999606586708012	3.005911e+02
356.001242268716737	3.005930e+02
356.99973038914743	3.005870e+02
358.001176667245943	3.005755e+02
358.99945403706937	3.005583e+02
360.000768690903158	3.005339e+02
361.002189686773875	3.004999e+02
362.000773394692033	3.004553e+02
362.999684936947801	3.004028e+02
364.002107137089581	3.003492e+02
365.002007967804445	3.003008e+02
365.999470042928806	3.002657e+02
367.000687280871944	3.002503e+02
367.999530951051156	3.002569e+02
369.002067429825445	3.002834e+02
370.001889301599874	3.003222e+02
371.001790006237911	3.003648e+02
372.001657672861313	3.004057e+02
373.001395802476452	3.004428e+02
374.000962132299151	3.004737e+02
375.000382853457552	3.004973e+02
375.999792565119492	3.005160e+02
377.002436551305266	3.005304e+02
378.002318536379676	3.005389e+02
378.999502150836918	3.005393e+02
380.000040843411853	3.005305e+02
381.000627384820518	3.005149e+02
382.001002752364514	3.004953e+02
383.00115669650495	3.004722e+02
384.001362274559426	3.004437e+02
385.001836803982656	3.004070e+02
385.999673120352725	3.003607e+02
387.001085723101198	3.003071e+02
387.999674785773095	3.002534e+02
389.001503394841222	3.002064e+02
390.000277953550949	3.001719e+02
391.001992424886225	3.001541e+02
392.000294823884644	3.001539e+02
393.001073367511026	3.001702e+02
394.001031081924282	3.002001e+02
395.000083225457615	3.002397e+02
396.001391167296504	3.002865e+02
397.002142969087799	3.003409e+02
398.002486927678831	3.003965e+02
399.002454552175777	3.004478e+02
400.001999540525617	3.004921e+02
401.000839329190683	3.005221e+02
402.001818410464637	3.005321e+02
403.001560964542819	3.005195e+02
403.999786884809168	3.004842e+02
404.999724608758868	3.004284e+02
406.002155654581145	3.003558e+02
407.001519020125158	3.002718e+02
408.001202559612636	3.001802e+02
409.001369975461614	3.000868e+02
410.002043393628696	2.999963e+02
410.999972389979689	2.999128e+02
412.001170458417903	2.998396e+02
412.999627710769573	2.997842e+02
414.001692730684454	2.997643e+02
415.001429484919584	2.998055e+02
416.001825319840179	2.999092e+02
416.999635767361269	3.000306e+02
418.000859963892083	3.001278e+02
419.002365467976858	3.001907e+02
420.001016045350354	3.002285e+02
420.999914896541213	3.002504e+02
422.002133010558055	3.002650e+02
423.001501058126678	3.002774e+02
424.001069151508716	3.002889e+02
425.000824954660288	3.002991e+02
426.000668953435365	3.003064e+02
427.000478133099705	3.003085e+02
428.000310505721586	3.003040e+02
429.000300211275032	3.002899e+02
430.00050079737332	3.002617e+02
431.000971266033559	3.002164e+02
432.001782535379562	3.001562e+02
432.999925628943629	3.000861e+02
434.001561009992656	3.000149e+02
435.000563914871123	2.999513e+02
435.999970321399474	2.999042e+02
436.999630166304769	2.998797e+02
438.002466683619161	2.998792e+02
439.002192183795387	2.999018e+02
440.001688224110467	2.999442e+02
441.000709643122434	3.000002e+02
442.002232338345664	3.000627e+02
443.000112582989857	3.001232e+02
444.000667855841584	3.001778e+02
445.001001007242792	3.002254e+02
446.001186836704903	3.002640e+02
447.001232704298559	3.002936e+02
448.000910513210442	3.003132e+02
449.000011552115325	3.003235e+02
450.00110361713098	3.003263e+02
451.000822641461355	3.003178e+02
452.002366066913225	3.002921e+02
453.000011650833812	3.002458e+02
454.000108872903866	3.001771e+02
455.000233422348913	3.000907e+02
456.000785399313656	2.999951e+02
457.001850476985567	2.998978e+02
458.000289331378383	2.998050e+02
459.002052251780583	2.997225e+02
460.001104160380521	2.996565e+02
461.000605394844229	2.996154e+02
462.000647284535148	2.996120e+02
463.001173175470285	2.996620e+02
464.00204395615998	2.997576e+02
465.000109990166891	2.998651e+02
466.001419342150768	2.999573e+02
466.999665365169903	3.000276e+02
468.000946758895623	3.000753e+02
469.00234917832978	3.001066e+02
470.000864960320541	3.001281e+02
471.002477313541476	3.001421e+02
472.000846115626814	3.001492e+02
473.001921648078792	3.001490e+02
473.999450733767674	3.001418e+02
475.002485419731613	3.001283e+02
476.001736261685664	3.001067e+02
477.000260252070859	3.000731e+02
478.001290283438777	3.000246e+02
479.002008661757372	2.999605e+02
479.999562910336579	2.998826e+02
481.000322084070604	2.997952e+02
482.001520182046136	2.997075e+02
483.000129708258498	2.996276e+02
484.002359095712279	2.995657e+02
485.002231876276539	2.995309e+02
485.999765812743988	2.995287e+02
487.000864815357943	2.995618e+02
488.002170062228913	2.996245e+02
489.00045954244689	2.997015e+02
490.001794625150296	2.997832e+02
491.000023860958038	2.998581e+02
492.001336155991623	2.999219e+02
492.999710818571032	2.999728e+02
494.001329079959532	3.000120e+02
494.999968105950188	3.000411e+02
496.001562342131649	3.000617e+02
496.999754554658693	3.000741e+02
498.000257974445901	3.000788e+02
498.999633121729119	3.000752e+02
500.000600046659713	3.000596e+02
501.000301677009986	3.000270e+02
502.002412948044253	2.999746e+02
503.001270200884846	2.999039e+02
504.000282790935785	2.998193e+02
504.999706850163989	2.997270e+02
505.999664625479113	2.996354e+02
507.000112705771187	2.995516e+02
508.001079532326344	2.994801e+02
508.999694129455179	2.994298e+02
510.002150127088953	2.994102e+02
511.002218394323165	2.994283e+02
511.999617029439776	2.994833e+02
513.000336886104947	2.995627e+02
514.001282186812773	2.996478e+02
515.002424232829867	2.997307e+02
516.000697486192735	2.998033e+02
517.002277367944544	2.998605e+02
518.001087041363917	2.999027e+02
519.000070186908943	2.999332e+02
520.002061922669782	2.999525e+02
521.000512523646989	2.999605e+02
522.001053482481552	2.999592e+02
523.00007566929969	2.999506e+02
524.00040467210556	2.999340e+02
525.002202554868177	2.999061e+02
525.999694312942552	2.998631e+02
526.999458637387761	2.998027e+02
528.002023008216497	2.997269e+02
529.001696489106394	2.996414e+02
530.001685071507382	2.995519e+02
531.002105257858034	2.994634e+02
532.000102648962866	2.993830e+02
533.002010846639109	2.993200e+02
534.001793663617718	2.992823e+02
535.00238793895619	2.992757e+02
536.000543394840406	2.993030e+02
537.00221616204044	2.993585e+02
538.001316173628652	2.994283e+02
539.000898988117228	2.995052e+02
540.000958099782565	2.995824e+02
541.001466161834855	2.996516e+02
542.002421923823476	2.997084e+02
543.000713570675316	2.997547e+02
544.002193041538362	2.997889e+02
545.000406429081409	2.998094e+02
546.00095340545306	2.998163e+02
547.00021874262427	2.998114e+02
548.000745048939393	2.997974e+02
549.002445044088745	2.997762e+02
549.999562917941262	2.997445e+02
551.001704629471192	2.996970e+02
552.000285762018734	2.996340e+02
553.001876807178064	2.995587e+02
554.000655055405559	2.994767e+02
554.999829365842629	2.993912e+02
555.999567795011444	2.993129e+02
557.000175434605808	2.992480e+02
558.001793394211631	2.992039e+02
559.00131092580159	2.991861e+02
560.001546083334915	2.991976e+02
561.002386530925833	2.992360e+02
562.000729949413312	2.992922e+02
562.999653645662534	2.993583e+02
564.00229373021466	2.994315e+02
564.999475585275604	2.995029e+02
566.000311189876584	2.995663e+02
567.001666591151775	2.996197e+02
568.000307677030833	2.996605e+02
569.001989843350998	2.996853e+02
570.000023661687237	2.996934e+02
570.999700393102785	2.996897e+02
572.000439015618099	2.996789e+02
573.002230577215073	2.996638e+02
574.002266792418823	2.996417e+02
575.000829058087334	2.996064e+02
576.001393769855326	2.995557e+02
577.001472104321579	2.994925e+02
578.001635884421603	2.994182e+02
579.002225501488283	2.993353e+02
580.000387462350659	2.992543e+02
581.002380412888328	2.991841e+02
582.002327348264998	2.991322e+02
583.000205700019592	2.991043e+02
584.001947425262415	2.991026e+02
585.001403597161357	2.991250e+02
586.001610182698755	2.991676e+02
586.999474569159929	2.992245e+02
588.001157742226951	2.992886e+02
589.000631909316667	2.993569e+02
590.000920806390923	2.994243e+02
591.001864889442004	2.994822e+02
592.000226401013947	2.995261e+02
593.001883186344003	2.995532e+02
594.000098638576901	2.995630e+02
595.000086811843175	2.995619e+02
596.001196695657427	2.995563e+02
597.000336537858743	2.995470e+02
598.000764526629723	2.995313e+02
598.999522899176213	2.995065e+02
599.99982476013588	2.994703e+02
601.002285755532398	2.994195e+02
602.001591538951516	2.993556e+02
603.001281703943391	2.992795e+02
604.001616661409116	2.992004e+02
604.999745050567526	2.991288e+02
606.001895755989949	2.990745e+02
607.001981525184647	2.990437e+02
607.999884555359131	2.990366e+02
609.001675652836298	2.990506e+02
610.001269377164135	2.990829e+02
611.001645590090448	2.991291e+02
611.999754677846681	2.991829e+02
613.001761147372122	2.992411e+02
614.001546520031638	2.993029e+02
615.002035165274378	2.993581e+02
616.000039708262875	2.993991e+02
617.001462896928274	2.994237e+02
617.999515416417125	2.994338e+02
618.999470065691867	2.994361e+02
620.000805606669473	2.994355e+02
621.000240791944179	2.994315e+02
622.000838850833702	2.994201e+02
622.999656623172655	2.994008e+02
623.999766480964695	2.993727e+02
625.001803129988502	2.993302e+02
626.000317040151231	2.992760e+02
627.001683696620375	2.992108e+02
628.000315543485499	2.991415e+02
629.002561217216908	2.990743e+02
630.002438879278088	2.990179e+02
631.002955673773158	2.989782e+02
632.001012629589809	2.989569e+02
633.002699473447251	2.989526e+02
634.001889312937465	2.989631e+02
635.001553274005119	2.989848e+02
636.001736588772701	2.990154e+02
637.002452317897564	2.990521e+02
638.000595801157715	2.990915e+02
639.002197008557346	2.991315e+02
640.001032774407008	2.991680e+02
641.002958105666721	2.992002e+02
642.001641230730115	2.992258e+02
643.002930592774305	2.992435e+02
644.000536261087632	2.992516e+02
645.000400906263053	2.992512e+02
646.002403030734968	2.992430e+02
647.000428710698316	2.992246e+02
648.000698545681189	2.991955e+02
649.000499989700188	2.991554e+02
650.003277544149341	2.991030e+02
651.000378245951083	2.990443e+02
652.001269812120313	2.989850e+02
653.003251301835121	2.989343e+02
654.00039499311265	2.989037e+02
655.001834081739048	2.989014e+02
656.001407575095755	2.989253e+02
657.002107554136728	2.989648e+02
658.000810264371694	2.990090e+02
659.000585027827697	2.990543e+02
660.001440115899527	2.991025e+02
661.000279426955217	2.991536e+02
662.003236992262941	2.992036e+02
663.001194083112182	2.992497e+02
664.000315549291145	2.992926e+02
665.000678853412523	2.993330e+02
666.002406258324299	2.993699e+02
667.002517167895007	2.994002e+02
668.000983778476439	2.994212e+02
669.000775934492253	2.994320e+02
670.00169892973895	2.994341e+02
671.000584711122087	2.994295e+02
672.000405870367331	2.994214e+02
673.001034998789009	2.994137e+02
674.002207470605072	2.994095e+02
675.000366758409314	2.994121e+02
676.001163021949083	2.994223e+02
677.000851495268762	2.994391e+02
678.001914457235216	2.994619e+02
679.001062991906679	2.994890e+02
680.001497095162676	2.995169e+02
681.00051293938543	2.995392e+02
682.001949242616547	2.995497e+02
683.000307428148062	2.995472e+02
684.002000574079375	2.995288e+02
685.001080216755781	2.994913e+02
686.001043964556743	2.994369e+02
687.002317362028862	2.993732e+02
688.00198630270188	2.993033e+02
689.003310225097039	2.992372e+02
690.003069391481517	2.991786e+02
691.001489026205945	2.991366e+02
692.001466734477731	2.991132e+02
693.001521395924215	2.991051e+02
694.000843959614485	2.991113e+02
695.00174722867348	2.991324e+02
696.000258784699326	2.991657e+02
697.002035589103343	2.992070e+02
698.000951547002842	2.992489e+02
699.000634646862295	2.992799e+02
700.002415252430978	2.992942e+02
701.001919582793789	2.992873e+02
702.003169270331341	2.992580e+02
703.000290042589882	2.992168e+02
704.002752621482614	2.991954e+02
705.001068226338248	2.992182e+02
706.001170381890347	2.992569e+02
707.003024585313028	2.992649e+02
708.000841218370624	2.992280e+02
709.003096664100667	2.991638e+02
710.001867467065381	2.991041e+02
711.001900809525296	2.990760e+02
712.002230525301115	2.990823e+02
713.002616782116434	2.991103e+02
714.003153813684435	2.991564e+02
715.002230783905134	2.992191e+02
716.001449405971812	2.992864e+02
717.002198600861902	2.993476e+02
718.002608436556102	2.994028e+02
719.00084155514071	2.994705e+02
720.00034254503862	2.995365e+02
721.003243936275453	2.995665e+02
722.001915774100667	2.995662e+02
723.001868895556413	2.995511e+02
724.00148624064002	2.995048e+02
725.00179498576847	2.994232e+02
726.002897002168879	2.993202e+02
727.00311715667317	2.992378e+02
728.000286860048504	2.992410e+02
729.000736412889978	2.993261e+02
730.001335613441825	2.994417e+02
731.00226535468903	2.995574e+02
732.000344958311075	2.996647e+02
733.002581780720789	2.997596e+02
734.001590215599776	2.998378e+02
735.002510360109227	2.998834e+02
736.001119003012491	2.998821e+02
737.001391551654592	2.998549e+02
738.00306896377856	2.998571e+02
739.002326407581904	2.998847e+02
740.000887971552743	2.998687e+02
741.003218013704668	2.997577e+02
742.001481341004705	2.995530e+02
743.002872445924595	2.993551e+02
744.000994513999103	2.992922e+02
745.001899127643014	2.993375e+02
746.000416920793327	2.994335e+02
747.002640621007231	2.995469e+02
748.002178343825335	2.996554e+02
749.001337642119438	2.997468e+02
750.000390949670987	2.998229e+02
751.00119595503304	2.998844e+02
752.003305956728241	2.999249e+02
753.002766298378219	2.999378e+02
754.000487219143793	2.999472e+02
754.999128065390664	2.999692e+02
756.000699113219298	2.999669e+02
757.001166705096352	2.998898e+02
757.9990673524984	2.997331e+02
758.998830655214419	2.995751e+02
759.999774459978198	2.995046e+02
761.001845671626256	2.995022e+02
761.999234547841183	2.995628e+02
763.001897102366797	2.996672e+02
764.000474273164173	2.997838e+02
765.001089212482157	2.998949e+02
766.00031405992695	2.999935e+02
767.001331895921226	3.000732e+02
767.998939243757377	3.001312e+02
769.000348733082888	3.001738e+02
770.000346304854816	3.002004e+02
770.999690083257178	3.002149e+02
772.001694284471114	3.002144e+02
772.999525002927498	3.001735e+02
774.001447371615313	3.000767e+02
774.999573477696117	2.999189e+02
775.999130282261149	2.997967e+02
776.999804294107548	2.997812e+02
778.001913556874001	2.998463e+02
778.999821593015895	2.999432e+02
780.00029731203108	3.000422e+02
781.000357685635095	3.001340e+02
781.999688636512928	3.002149e+02
783.000736637852924	3.002794e+02
784.000328374678361	3.003278e+02
784.999532959951352	3.003673e+02
785.999595065719973	3.003967e+02
787.001474755621871	3.004070e+02
787.999503057897869	3.003917e+02
788.999637772349502	3.003492e+02
790.000263096708409	3.002646e+02
790.999859417053472	3.001601e+02
792.000469008794312	3.000973e+02
793.00178677720703	3.001005e+02
794.000983481086109	3.001499e+02
794.99902037145398	3.002180e+02
795.999854815066215	3.002867e+02
797.000675214177022	3.003485e+02
798.00141209552055	3.004028e+02
799.001867022362831	3.004489e+02
800.001828341265082	3.004837e+02
801.001338273818988	3.005051e+02
802.000899584390368	3.005114e+02
803.000859755815895	3.005006e+02
804.001487791138061	3.004717e+02
804.999638548220901	3.004318e+02
806.000962325932733	3.003995e+02
807.001436761686705	3.003921e+02
808.000323512251384	3.004107e+02
809.00042085339976	3.004468e+02
809.998953162832777	3.004907e+02
810.999747731377965	3.005347e+02
812.000445808906875	3.005740e+02
813.001717187329405	3.006063e+02
814.000996803616999	3.006308e+02
815.001483876146722	3.006482e+02
815.999943347408589	3.006604e+02
816.999292610092539	3.006705e+02
817.999422182798639	3.006811e+02
819.000088555690922	3.006956e+02
820.000915976270903	3.007152e+02
821.001627781565844	3.007379e+02
821.999024125580377	3.007617e+02
822.999456681264405	3.007879e+02
824.000137641189554	3.008177e+02
825.001193434255015	3.008508e+02
825.999397237883954	3.008841e+02
827.000763383723665	3.009144e+02
828.002079249046233	3.009409e+02
829.000246267058628	3.009652e+02
830.00154344749194	3.009888e+02
830.999966498661593	3.010118e+02
832.001856072553323	3.010338e+02
833.001041112862708	3.010545e+02
834.000563356959333	3.010739e+02
835.00031503114792	3.010923e+02
836.000166531887203	3.011095e+02
837.000009775649346	3.011254e+02
837.999784166984455	3.011407e+02
838.999471659427968	3.011568e+02
840.002204895327623	3.011741e+02
841.001838571116878	3.011916e+02
842.001533997478646	3.012088e+02
843.001348156905578	3.012252e+02
844.001352192163722	3.012411e+02
845.001617405196043	3.012563e+02
846.002206649403661	3.012706e+02
847.000045342504222	3.012834e+02
848.001393495137449	3.012948e+02
849.000066851526526	3.013049e+02
850.002283531297962	3.013146e+02
851.001806190957154	3.013248e+02
852.001667167656137	3.013358e+02
853.001720161459843	3.013476e+02
854.001760357195053	3.013592e+02
855.001618582941546	3.013711e+02
856.001231692467059	3.013845e+02
857.000630531345109	3.014002e+02
857.99996229766748	3.014176e+02
858.999400089640289	3.014360e+02
860.002184410614973	3.014548e+02
861.002150572704522	3.014739e+02
862.002463908175059	3.014931e+02
863.000066538356009	3.015118e+02
864.001232347321775	3.015293e+02
864.99970192988701	3.015449e+02
866.001726844160999	3.015585e+02
867.001286482540422	3.015706e+02
868.001722134854617	3.015821e+02
868.999880348745478	3.015937e+02
870.001935170645083	3.016050e+02
871.00153155291548	3.016155e+02
872.0017061958564	3.016257e+02
873.002356219041417	3.016358e+02
874.000232591689496	3.016456e+02
875.001540439890846	3.016533e+02
875.999910386195324	3.016574e+02
877.001481693932647	3.016582e+02
877.999885993603129	3.016569e+02
879.001263833787675	3.016548e+02
880.002358569299645	3.016522e+02
881.000190642385405	3.016486e+02
882.001048526399813	3.016433e+02
883.001775415075372	3.016361e+02
884.002395579254085	3.016281e+02
884.999657572765045	3.016213e+02
885.999789404366311	3.016172e+02
886.999646439540584	3.016163e+02
888.00237734016082	3.016189e+02
889.001756230626597	3.016261e+02
890.001077707016407	3.016379e+02
891.000482175845718	3.016522e+02
892.000062393017856	3.016656e+02
892.999780154953783	3.016769e+02
893.999524496379763	3.016862e+02
895.002367962400854	3.016956e+02
896.002059434752709	3.017074e+02
897.001876985525996	3.017231e+02
898.001892976587442	3.017418e+02
899.002072739497748	3.017612e+02
900.00226647199645	3.017788e+02
901.002219015446826	3.017923e+02
902.001877484636907	3.018004e+02
903.001448291134466	3.018024e+02
904.00081956489646	3.017981e+02
904.999870014935254	3.017892e+02
906.001502056804497	3.017797e+02
907.0021787960859	3.017781e+02
908.00142348136967	3.017920e+02
909.002361261939882	3.018239e+02
910.001701741693751	3.018706e+02
911.002025306961968	3.019285e+02
912.000084906579787	3.019883e+02
913.002387033920058	3.020391e+02
914.000174875382299	3.020717e+02