# Region type : patch node4U_1_Inlet_0
#   Faces  : 252
#   Area   : 3.469385e-02
#        Time	areaAverage(T)
     0.999427	3.031500e+02
      2.00049	3.031500e+02
      3.00031	3.031499e+02
      3.99973	3.031499e+02
      4.99982	3.031499e+02
      6.00096	3.031500e+02
      7.00036	3.031500e+02
      8.00025	3.031500e+02
      8.99988	3.031500e+02
    10.001085	3.031500e+02
    11.000692	3.031497e+02
    12.001191	3.031491e+02
    12.999649	3.031477e+02
    14.001542	3.031459e+02
  15.00189828	3.031444e+02
  15.99988226	3.031412e+02
  17.00017478	3.031310e+02
  18.00193736	3.031207e+02
  19.00151818	3.031219e+02
20.0008366743	3.031263e+02
20.9998906736	3.031276e+02
22.0004046233	3.031231e+02
23.0019404832	3.031118e+02
24.0012205111	3.030950e+02
25.00103148151	3.030777e+02
26.00145684001	3.030634e+02
27.00004978592	3.030524e+02
28.00022180022	3.030414e+02
29.00195713833	3.030262e+02
30.0018988506734	3.030039e+02
30.9994166437823	3.029764e+02
31.9999407205586	3.029470e+02
33.0000883263084	3.029217e+02
33.9999261880782	3.029100e+02
34.99989826907763	3.029200e+02
36.0006031953723	3.029536e+02
36.99962984297605	3.030069e+02
38.0003089679974	3.030737e+02
39.00209665658186	3.031470e+02
40.0012863007697277	3.032166e+02
41.0004470571356947	3.032729e+02
41.9993965307413362	3.033120e+02
43.0012725169204089	3.033353e+02
44.0005873877409002	3.033471e+02
45.0012199994476063	3.033524e+02
46.0009393835860863	3.033549e+02
47.0000442153652571	3.033564e+02
48.0018610394178822	3.033572e+02
48.9997325317166315	3.033569e+02
50.0021775572707057	3.033563e+02
50.9997634936260127	3.033572e+02
52.0015797868251042	3.033619e+02
53.0014568467714753	3.033714e+02
53.9993703354572006	3.033852e+02
55.0014578776252705	3.034026e+02
56.0015063803220556	3.034224e+02
56.9993007919884533	3.034441e+02
58.0005517023480479	3.034674e+02
59.0015925490781115	3.034920e+02
60.0018908505566415	3.035179e+02
61.0009800962095454	3.035447e+02
62.0016847987404844	3.035723e+02
63.0008514650009204	3.036003e+02
64.0016224905073443	3.036282e+02
65.0010205028656571	3.036556e+02
65.9991782926576747	3.036817e+02
66.9993045720345037	3.037057e+02
68.0016049217815777	3.037276e+02
69.0001658747982418	3.037471e+02
70.0013395494859054	3.037646e+02
70.9992988761994752	3.037800e+02
72.0004934789457991	3.037936e+02
72.9991716005637272	3.038053e+02
74.0015339487289907	3.038154e+02
75.0014148163286762	3.038243e+02
76.002097476117882	3.038327e+02
77.0005466017592397	3.038412e+02
78.0020814540972367	3.038502e+02
79.0000086917481781	3.038597e+02
80.0003428665580429	3.038694e+02
80.999943347119995	3.038791e+02
82.0016427855575785	3.038888e+02
83.0021891740124715	3.038986e+02
84.0014946411811678	3.039084e+02
84.9994093991834632	3.039183e+02
86.0018418432950114	3.039286e+02
86.9992916239352354	3.039393e+02
88.0008526888623379	3.039507e+02
89.0006998853118887	3.039627e+02
89.9992555464640844	3.039752e+02
90.9999007114457612	3.039882e+02
91.9999590804571454	3.040013e+02
92.9997504225152483	3.040144e+02
93.9995042316591451	3.040275e+02
94.9993602916594568	3.040405e+02
95.9994392090895303	3.040533e+02
96.9997627107579348	3.040659e+02
98.000325068692149	3.040783e+02
99.0011375150603357	3.040902e+02
99.9991843605965158	3.041018e+02
101.00046990174414	3.041129e+02
102.001914400147896	3.041235e+02
103.000427718585158	3.041335e+02
104.001968357798162	3.041430e+02
105.000402300797276	3.041521e+02
106.00167337833075	3.041607e+02
106.999720653053444	3.041688e+02
108.000574922951998	3.041767e+02
109.001183388255313	3.041845e+02
110.001598555004932	3.041924e+02
111.001809960871924	3.042007e+02
112.001793013756824	3.042092e+02
113.001528154514872	3.042181e+02
114.001009847252462	3.042274e+02
115.000202831074915	3.042369e+02
116.002102334934989	3.042467e+02
117.000715413568841	3.042568e+02
118.002055522468709	3.042674e+02
119.000071143143373	3.042784e+02
120.000734593262081	3.042896e+02
121.001040428864272	3.043009e+02
122.000895696996849	3.043120e+02
123.000401990900599	3.043230e+02
123.999581345698331	3.043338e+02
125.00165126034689	3.043440e+02
126.000933917247323	3.043536e+02
127.000800238135412	3.043628e+02
128.00173647802751	3.043715e+02
129.00129277049885	3.043807e+02
130.000237083243377	3.043903e+02
131.002019942693749	3.044003e+02
132.000556249491751	3.044108e+02
133.001708961100434	3.044223e+02
133.999211502126116	3.044341e+02
134.999444689097459	3.044462e+02
136.002163576650617	3.044585e+02
137.00083257098558	3.044705e+02
138.001289554509299	3.044826e+02
139.000162449722865	3.044947e+02
140.000356000151754	3.045070e+02
141.001762687073438	3.045189e+02
142.001227116659862	3.045295e+02
143.001758992804923	3.045384e+02
144.000046906151454	3.045450e+02
145.002117640445078	3.045492e+02
146.001698620146101	3.045510e+02
147.001869951815763	3.045507e+02
147.999412676945752	3.045486e+02
149.000502630682263	3.045451e+02
150.002031846635759	3.045402e+02
151.000945308380693	3.045344e+02
152.000392706555033	3.045279e+02
153.000344111008246	3.045213e+02
154.000848519996765	3.045157e+02
155.001849565877535	3.045117e+02
155.999919133429529	3.045095e+02
157.001231978691948	3.045083e+02
157.999637594332484	3.045068e+02
159.001337006996977	3.045041e+02
159.999985275074579	3.044999e+02
161.001836902671556	3.044948e+02
162.000882780762765	3.044890e+02
163.000611487960924	3.044818e+02
164.001253966490822	3.044737e+02
164.99970292905607	3.044651e+02
166.002184461290227	3.044579e+02
166.999176464816202	3.044531e+02
167.999749292420262	3.044513e+02
169.000457816924495	3.044521e+02
170.001021029417331	3.044540e+02
171.001099942349299	3.044550e+02
172.000355515814675	3.044533e+02
173.001746647269101	3.044478e+02
174.002152591046894	3.044393e+02
175.001755704633041	3.044298e+02
176.000821351688046	3.044212e+02
176.999753344759881	3.044135e+02
178.002006058682696	3.044062e+02
179.001692096944993	3.043993e+02
180.002219957425154	3.043925e+02
181.000797565332817	3.043854e+02
182.000811565144744	3.043783e+02
183.002086337846862	3.043714e+02
184.001201063512127	3.043651e+02
185.000783478375581	3.043593e+02
186.00044806141085	3.043537e+02
186.999981683477245	3.043486e+02
187.999435338469596	3.043451e+02
189.00208794243747	3.043445e+02
190.001265510857166	3.043473e+02
190.999491986982719	3.043529e+02
191.999399268182685	3.043594e+02
193.000740238839938	3.043639e+02
194.000646049862979	3.043634e+02
194.999193447980275	3.043566e+02
196.002192717481279	3.043461e+02
197.000351334353894	3.043379e+02
198.000800448636511	3.043348e+02
199.001186293513399	3.043355e+02
200.001526532524821	3.043390e+02
201.001450659297234	3.043432e+02
202.000100136292275	3.043466e+02
202.999620404800112	3.043485e+02
204.00076842776113	3.043481e+02
205.00036482549578	3.043450e+02
205.999999988846213	3.043382e+02
207.001914344026375	3.043282e+02
207.999125829536183	3.043167e+02
208.999923867584073	3.043057e+02
210.000669202986984	3.042972e+02
211.001305360211802	3.042920e+02
212.001686720891712	3.042902e+02
213.001833186057354	3.042910e+02
214.001756223911087	3.042929e+02
215.001068561062397	3.042943e+02
215.999520239872908	3.042955e+02
217.000690077315198	3.042971e+02
218.001426851005675	3.042998e+02
219.001151173704557	3.043033e+02
219.999885577453909	3.043070e+02
221.000661102380548	3.043102e+02
221.999835211597599	3.043122e+02
223.000462327138024	3.043125e+02
223.999653193698379	3.043102e+02
225.000469582024408	3.043044e+02
225.999731485268541	3.042953e+02
227.000844843352837	3.042831e+02
228.001278601827948	3.042695e+02
229.001142085054227	3.042555e+02
230.000788362964073	3.042411e+02
231.000532173823302	3.042265e+02
232.00040972068021	3.042125e+02
233.000624104503117	3.041989e+02
234.001396381113778	3.041853e+02
234.999831741662888	3.041723e+02
236.002184394266891	3.041604e+02
236.999323760186996	3.041497e+02
238.000841021318877	3.041408e+02
239.000648791400721	3.041342e+02
240.001864059279853	3.041297e+02
241.001525504294193	3.041269e+02
241.999861653041052	3.041257e+02
243.000176867993105	3.041264e+02
243.999448060339176	3.041291e+02
245.000801627631205	3.041342e+02
246.001344846181468	3.041413e+02
247.001324454182935	3.041505e+02
248.000037943156457	3.041624e+02
248.999941353168651	3.041769e+02
250.001104061357523	3.041929e+02
251.000328980156581	3.042092e+02
252.000173900200252	3.042256e+02
252.999545627838017	3.042417e+02
254.000412717134907	3.042570e+02
255.002070280796744	3.042717e+02
256.001141378760394	3.042854e+02
257.000801449015	3.042979e+02
258.001317248576299	3.043069e+02
258.999921058626683	3.043106e+02
259.999903519438874	3.043069e+02
261.001459944650151	3.042952e+02
261.99950198017018	3.042770e+02
263.002073175883766	3.042557e+02
264.00147485732964	3.042348e+02
265.001409940634289	3.042161e+02
266.001222665234081	3.042005e+02
266.999356372786394	3.041887e+02
268.000801351650352	3.041815e+02
269.001061836799693	3.041777e+02
270.001570957332774	3.041753e+02
271.001197223320446	3.041719e+02
271.999843127221254	3.041660e+02
272.999851389104379	3.041559e+02
274.001045185075895	3.041420e+02
275.002078343984977	3.041275e+02
276.001001234466742	3.041150e+02
277.000940467892235	3.041044e+02
278.001846812526139	3.040949e+02
279.002106909146448	3.040851e+02
279.999411286209238	3.040755e+02
281.000052077034354	3.040664e+02
282.001420414053882	3.040584e+02
283.000789900294194	3.040521e+02
284.001119242949017	3.040469e+02
284.999128858217489	3.040417e+02
286.001023809294452	3.040360e+02
287.000535469379486	3.040302e+02
288.00030306683135	3.040245e+02
288.999959200054263	3.040190e+02
289.999403776486474	3.040142e+02
291.001413806982043	3.040113e+02
291.999244447509113	3.040102e+02
293.002181682697767	3.040106e+02
294.001289171638462	3.040126e+02
294.9997808052903	3.040164e+02
296.000668371375525	3.040220e+02
297.001403979092856	3.040286e+02
297.999602954992781	3.040365e+02
299.001563752055858	3.040455e+02
300.000870963000182	3.040545e+02
301.000459603540605	3.040616e+02
301.99969959053908	3.040661e+02
303.001210181756392	3.040677e+02
303.99932822820108	3.040662e+02
304.999415485303132	3.040622e+02
306.000627847237752	3.040571e+02
307.001124754946829	3.040519e+02
308.000711371669183	3.040470e+02
309.000927297470525	3.040436e+02
310.000045420744755	3.040425e+02
310.999139328738863	3.040432e+02
311.999365000378646	3.040449e+02
313.001022626399902	3.040475e+02
313.999671646212619	3.040510e+02
315.000760884083206	3.040551e+02
316.000720504246658	3.040594e+02
317.000514748559908	3.040637e+02
318.000311741880466	3.040676e+02
318.999867568818217	3.040711e+02
320.002005728630309	3.040742e+02
321.000691099282733	3.040772e+02
322.002187745865854	3.040802e+02
323.000323250955773	3.040833e+02
324.001163648725424	3.040863e+02
325.001771173919508	3.040890e+02
325.999212812943369	3.040916e+02
326.999676102965623	3.040942e+02
328.000255301128561	3.040967e+02
329.001112825797065	3.040994e+02
329.999346093749807	3.041024e+02
331.001166557975864	3.041060e+02
332.000590345949774	3.041099e+02
333.000746648664403	3.041143e+02
334.001666560779768	3.041192e+02
335.000286033522173	3.041249e+02
335.999636769684173	3.041313e+02
336.999649579343384	3.041384e+02
338.000234831593389	3.041459e+02
339.001287990890148	3.041536e+02
339.999656707648342	3.041617e+02
341.001378012961425	3.041705e+02
342.000251478384314	3.041797e+02
342.999351020358631	3.041894e+02
344.001796304556365	3.041996e+02
345.001462851231054	3.042102e+02
346.00143856972727	3.042210e+02
347.001741333009704	3.042314e+02
347.999247405752897	3.042415e+02
349.000067526108751	3.042511e+02
350.001114409776676	3.042600e+02
350.999290699119342	3.042679e+02
352.000702496022427	3.042748e+02
353.002181191420505	3.042808e+02
354.000643880770156	3.042857e+02
355.002142379248312	3.042898e+02
356.000520636679539	3.042932e+02
357.002018078982587	3.042959e+02
358.000317209781258	3.042982e+02
359.00149075792234	3.043000e+02
359.999639310424641	3.043016e+02
361.000791179181476	3.043030e+02
362.001650389655197	3.043042e+02
362.999299044763688	3.043053e+02
363.999954132117466	3.043064e+02
365.000374051221741	3.043079e+02
366.000574278448028	3.043098e+02
367.000635690741717	3.043121e+02
368.000427054256932	3.043150e+02
368.99992889809289	3.043185e+02
369.999278391401049	3.043225e+02
371.001565390187693	3.043271e+02
372.000571755925989	3.043319e+02
372.999447808600848	3.043371e+02
374.00150212384716	3.043425e+02
375.00045299753242	3.043478e+02
375.999301187959873	3.043529e+02
377.00141920116738	3.043574e+02
378.000606633007806	3.043612e+02
378.999727806940825	3.043642e+02
380.001971923656129	3.043662e+02
381.001383932681335	3.043675e+02
382.000729408592179	3.043682e+02
382.999756630012996	3.043682e+02
384.001999060981063	3.043680e+02
385.001352622444017	3.043676e+02
386.000457802964775	3.043674e+02
386.999603050837038	3.043677e+02
387.999141282559208	3.043690e+02
389.001802138658491	3.043713e+02
390.001368673472257	3.043746e+02
391.001252743555426	3.043790e+02
392.001385633798918	3.043842e+02
393.001409925670259	3.043901e+02
394.001339081222397	3.043964e+02
395.001418748944729	3.044027e+02
396.001402216327904	3.044085e+02
397.000942251103254	3.044148e+02
398.000305205292705	3.044205e+02
398.999489339743036	3.044253e+02
400.001169611616945	3.044293e+02
401.00242749402571	3.044324e+02
402.000339479182628	3.044347e+02
403.000837990989226	3.044364e+02
404.000959749445713	3.044378e+02
405.000912570270657	3.044392e+02
406.000633137846023	3.044406e+02
407.000176630601629	3.044421e+02
408.002799501512754	3.044438e+02
409.00235409679874	3.044458e+02
410.001878744864484	3.044481e+02
411.001469558200654	3.044508e+02
412.001146856360094	3.044538e+02
413.000884269871619	3.044572e+02
414.000758753240518	3.044608e+02
415.00081696790005	3.044645e+02
416.001004304982189	3.044684e+02
417.001311448184367	3.044724e+02
418.00182188299226	3.044765e+02
419.002562322013603	3.044805e+02
420.000378330160288	3.044845e+02
421.001396428207272	3.044884e+02
422.00264921429067	3.044921e+02
423.001026575144977	3.044956e+02
424.002546890922076	3.044989e+02
425.001093002047753	3.045017e+02
426.00291886277364	3.045043e+02
427.001819360874492	3.045065e+02
428.000712321002368	3.045086e+02
429.002697199197087	3.045105e+02
430.001742193103951	3.045122e+02
431.000802520139075	3.045137e+02
432.002866942561752	3.045151e+02
433.001955410986454	3.045167e+02
434.001122415680697	3.045187e+02
435.000244788811187	3.045209e+02
436.002519715009385	3.045235e+02
437.001825726401876	3.045263e+02
438.001107970131102	3.045294e+02
439.00040898617624	3.045329e+02
440.002855924809694	3.045367e+02
441.002198155857116	3.045406e+02
442.001492434221745	3.045446e+02
443.000794645630833	3.045486e+02
444.000024304274746	3.045525e+02
445.002188637666166	3.045563e+02
446.001197449395704	3.045599e+02
447.000101309042236	3.045632e+02
448.00191243726016	3.045663e+02
449.000541404736282	3.045691e+02
450.002170310337476	3.045716e+02
451.000619193271689	3.045740e+02
452.002077931376448	3.045762e+02
453.00046660082694	3.045784e+02
454.001922175419111	3.045805e+02
455.000329387363649	3.045826e+02
456.001894962514143	3.045848e+02
457.000478893064383	3.045870e+02
458.002239867609433	3.045895e+02
459.001073717477254	3.045920e+02
460.000063292731568	3.045947e+02
461.002276131356439	3.045976e+02
462.001581124526638	3.046006e+02
463.001062790658807	3.046037e+02
464.000702451879533	3.046070e+02
465.00049045919036	3.046102e+02
466.000434774621795	3.046135e+02
467.000532136551215	3.046168e+02
468.000755999033117	3.046200e+02
469.001087833178758	3.046232e+02
470.001526805705168	3.046262e+02
471.002058379113748	3.046292e+02
472.00265318790116	3.046320e+02
473.000225918257627	3.046347e+02
474.00093142020728	3.046372e+02
475.001662799120709	3.046397e+02
476.002404019487358	3.046421e+02
477.000079505488145	3.046443e+02
478.00083138700478	3.046466e+02
479.001565568218382	3.046488e+02
480.002292133914182	3.046509e+02
480.999935074502389	3.046531e+02
482.000628797259651	3.046552e+02
483.001290305550754	3.046575e+02
484.001935380348414	3.046597e+02
485.002547900895763	3.046621e+02
486.000037411831784	3.046645e+02
487.000568604240357	3.046670e+02
488.001064651325635	3.046696e+02
489.001515201040093	3.046722e+02
490.001918661902494	3.046748e+02
491.002287144502873	3.046774e+02
492.002615123839917	3.046800e+02
493.002890094559348	3.046825e+02
494.000053456837634	3.046849e+02
495.00028458848351	3.046873e+02
496.00050121261944	3.046896e+02
497.000696037789282	3.046918e+02
498.000891293574966	3.046939e+02
499.001110805211738	3.046959e+02
500.001354995036479	3.046978e+02
501.001623681306057	3.046997e+02
502.001945531689614	3.047015e+02
503.002342495281312	3.047033e+02
504.002799858799733	3.047050e+02
505.000232009822469	3.047068e+02
506.000831247585666	3.047085e+02
507.001543471469006	3.047103e+02
508.002346558455599	3.047120e+02
509.000149502747036	3.047138e+02
510.001143220851304	3.047156e+02
511.002257167479627	3.047173e+02
512.000366500245832	3.047188e+02
513.001614455215076	3.047203e+02
513.999879411792222	3.047218e+02
515.001317648785744	3.047230e+02
516.002776175308327	3.047243e+02
517.001192368755142	3.047259e+02
518.002777660104812	3.047276e+02
519.001305867827796	3.047290e+02
520.00291886191053	3.047303e+02
521.001509893822004	3.047321e+02
522.000130004516336	3.047341e+02
523.001821424930654	3.047361e+02
524.000465309313427	3.047382e+02
525.00222068139135	3.047403e+02
526.000864846743298	3.047425e+02
527.002579577146093	3.047447e+02
528.001221791055855	3.047470e+02
529.002913985312034	3.047493e+02
530.001485596336238	3.047515e+02
531.000049069200941	3.047538e+02
532.001666957392672	3.047560e+02
533.000153335305754	3.047582e+02
534.001698333828585	3.047604e+02
535.000145272478903	3.047626e+02
536.001633412774481	3.047648e+02
536.999999706311087	3.047669e+02
538.001432301101318	3.047689e+02
539.002858131748667	3.047709e+02
540.001182585749802	3.047729e+02
541.002574315910579	3.047748e+02
542.000901475409592	3.047766e+02
543.002334450534363	3.047784e+02
544.000694508819038	3.047800e+02
545.002153143106284	3.047817e+02
546.000578972373091	3.047833e+02
547.002138311706517	3.047849e+02
548.000645363916078	3.047864e+02
549.002274049952121	3.047879e+02
550.000894485847425	3.047893e+02
551.00266858869395	3.047908e+02
552.001402452302273	3.047922e+02
553.00019269439872	3.047937e+02
554.002158941388757	3.047951e+02
555.00112316956529	3.047965e+02
556.000134356142439	3.047979e+02
557.002300782603243	3.047991e+02
558.001480422641748	3.048003e+02
559.000707020894311	3.048015e+02
559.999983457575922	3.048028e+02
561.002445342178021	3.048042e+02
562.001891099052273	3.048055e+02
563.001347912667825	3.048069e+02
564.000849996571901	3.048083e+02
565.00039226954766	3.048098e+02
565.999937400162707	3.048113e+02
567.002596086660105	3.048129e+02
568.002214940869521	3.048146e+02
569.001843015281452	3.048163e+02
570.001481662333163	3.048180e+02
571.001156436675956	3.048198e+02
572.000846339838972	3.048217e+02
573.000536984983341	3.048235e+02
574.000251968217754	3.048254e+02
574.999987926195786	3.048280e+02
576.002814107617951	3.048308e+02
577.002571780931476	3.048336e+02
578.002351106549327	3.048363e+02
579.002138308263739	3.048390e+02
580.001936317971172	3.048417e+02
581.001759685730121	3.048442e+02
582.001601879306122	3.048467e+02
583.001458801866534	3.048490e+02
584.001344963807128	3.048512e+02
585.001264265635882	3.048534e+02
586.001213073890312	3.048555e+02
587.001202386285286	3.048574e+02
588.001240755834942	3.048594e+02
589.001322653510897	3.048612e+02
590.00145127737926	3.048630e+02
591.001630240546888	3.048647e+02
592.001860933744183	3.048664e+02
593.002140792460182	3.048680e+02
594.002475827691796	3.048696e+02
595.002876579803342	3.048711e+02
596.000251129036656	3.048727e+02
597.000769461171785	3.048742e+02
598.001355088354103	3.048756e+02
599.002006568251886	3.048771e+02
600.002711519047011	3.048785e+02
601.000386243359799	3.048799e+02
602.001211461851653	3.048813e+02
603.002086321902084	3.048827e+02
603.9999206966055	3.048841e+02
605.000900229994045	3.048855e+02
606.001930701901301	3.048868e+02
606.999919837022389	3.048882e+02
608.001054295257063	3.048895e+02
609.002243591879278	3.048909e+02
610.000391088265815	3.048922e+02
611.00168495540197	3.048936e+02
611.999946165732922	3.048949e+02
613.001350572692445	3.048963e+02
614.002808340955198	3.048977e+02
615.001231119606246	3.048991e+02
616.002796043412786	3.049005e+02
617.001316012578968	3.049019e+02
618.002964245503563	3.049032e+02
619.00155292684201	3.049045e+02
620.000170996458564	3.049058e+02
621.00191241757625	3.049071e+02
622.000592134037561	3.049083e+02
623.002390898177623	3.049095e+02
624.001125211234125	3.049108e+02
624.999887473319973	3.049119e+02
626.001767713952518	3.049131e+02
627.000580986181035	3.049142e+02
628.002513949517265	3.049153e+02
629.001381975233471	3.049164e+02
630.000278836642224	3.049174e+02
631.002300476175037	3.049184e+02
632.001263370315201	3.049193e+02
633.000262018773014	3.049201e+02
634.002395313096599	3.049208e+02
635.001483117819703	3.049215e+02
636.000622247505135	3.049221e+02
637.002910267589414	3.049228e+02
638.002163062947488	3.049233e+02
639.001469959529459	3.049238e+02
640.000824743377962	3.049243e+02
641.000222343947485	3.049249e+02
642.002752678012371	3.049255e+02
643.002224632555908	3.049260e+02
644.001734870459131	3.049265e+02
645.001285627631887	3.049270e+02
646.000878026621649	3.049274e+02
647.000514441373866	3.049278e+02
648.000196438781359	3.049282e+02
648.999923577879827	3.049286e+02
650.002790375184759	3.049290e+02
651.002604301317433	3.049294e+02
652.002457223630245	3.049300e+02
653.002350979062157	3.049306e+02
654.002294488135703	3.049313e+02
655.00229735172195	3.049321e+02
656.002363617166225	3.049330e+02
657.002498176988183	3.049338e+02
658.002705291992243	3.049347e+02
658.999890626420438	3.049356e+02
660.00025262652639	3.049366e+02
661.000697181548048	3.049375e+02
662.001225298837198	3.049386e+02
663.001839722592536	3.049397e+02
664.002541131374414	3.049408e+02
665.00022928710132	3.049420e+02
666.001099410843494	3.049433e+02
667.002050649643138	3.049445e+02
667.999973641766701	3.049457e+02
669.001067047494985	3.049470e+02
670.002224794618542	3.049482e+02
671.000339328943483	3.049495e+02
672.001608278765502	3.049507e+02
673.002931837370397	3.049518e+02
674.001210557185459	3.049529e+02
675.00264569879414	3.049539e+02
676.00103754785232	3.049549e+02
677.002588344794617	3.049557e+02
678.001099102435205	3.049566e+02
679.002775231262717	3.049574e+02
680.001419129357032	3.049581e+02
681.000138851130714	3.049589e+02
682.002042709745751	3.049597e+02
683.000927966243466	3.049604e+02
683.999898945848486	3.049612e+02
685.002063750364869	3.049620e+02
686.001219771015258	3.049628e+02
687.000473235812592	3.049636e+02
688.002929229690722	3.049644e+02
689.002382901823239	3.049652e+02
690.001941808282481	3.049660e+02
691.001611000767866	3.049668e+02
692.001394619757093	3.049676e+02
693.00129712800117	3.049683e+02
694.001322467151454	3.049691e+02
695.001478059548276	3.049698e+02
696.001768480607552	3.049706e+02
697.002198923602577	3.049714e+02
698.002774467022959	3.049722e+02
699.000392983333654	3.049730e+02
700.001273674702134	3.049738e+02
701.002313653159376	3.049747e+02
702.000410406951801	3.049756e+02
703.001787749729374	3.049766e+02
704.003338662713873	3.049776e+02
705.001953529054617	3.049787e+02
706.00074381856632	3.049798e+02
707.002824693316938	3.049810e+02
708.001973801762574	3.049823e+02
709.001300462963741	3.049835e+02
710.000799250012733	3.049849e+02
711.000471164451255	3.049862e+02
712.003440032276558	3.049876e+02
713.003492600842947	3.049890e+02
714.00063423745587	3.049904e+02
715.001096376252576	3.049919e+02
716.001758585661719	3.049933e+02
717.002616626448457	3.049948e+02
718.00054656450493	3.049963e+02
719.001778193715381	3.049979e+02
720.003183017671631	3.049994e+02
721.001632285610867	3.050010e+02
722.003364252532606	3.050025e+02
723.002137711330761	3.050041e+02
724.001071001739092	3.050056e+02
725.003285472496941	3.050071e+02
726.002547273212031	3.050085e+02
727.001978100522592	3.050099e+02
728.001577118548767	3.050112e+02
729.00134540763213	3.050125e+02
730.001285335061311	3.050137e+02
731.001398929853963	3.050149e+02
732.001685352892878	3.050160e+02
733.002145772608287	3.050171e+02
734.002776950037628	3.050181e+02
735.000447596951631	3.050190e+02
736.001414034429672	3.050200e+02
737.002550374330326	3.050209e+02
738.000718365035709	3.050217e+02
739.002176954228162	3.050225e+02
740.000671886110695	3.050233e+02
740.999327711414708	3.050240e+02
742.001270411740279	3.050246e+02
743.000237102040614	3.050252e+02
743.999361712702353	3.050259e+02
745.001777685232582	3.050265e+02
746.001224340248314	3.050271e+02
747.000848691354122	3.050277e+02
748.000655722217516	3.050283e+02
749.000604386410942	3.050288e+02
750.000656736286373	3.050293e+02
751.000826158039558	3.050299e+02
752.001109609791342	3.050305e+02
753.001495182742929	3.050311e+02
754.001989692293023	3.050319e+02
754.999471110642389	3.050326e+02
756.000224574620461	3.050335e+02
757.001049564125083	3.050344e+02
758.001972105735717	3.050353e+02
758.99983775087253	3.050362e+02
760.000904619941025	3.050371e+02
761.002026355589692	3.050380e+02
762.000069159134	3.050388e+02
763.001305783598809	3.050396e+02
763.999445918960419	3.050404e+02
765.000769682698206	3.050410e+02
766.002148224216512	3.050416e+02
767.000432167149825	3.050421e+02
768.001887983280881	3.050425e+02
769.000246112762852	3.050428e+02
770.001790586725178	3.050431e+02
771.000225011572979	3.050434e+02
772.001825195637252	3.050435e+02
773.000329994232175	3.050437e+02
774.00201724905412	3.050437e+02
775.000584719739777	3.050437e+02
775.999182528510801	3.050437e+02
777.00097104953943	3.050436e+02
777.999652975437129	3.050435e+02
779.001491938544746	3.050433e+02
780.000229793246945	3.050431e+02
781.002158916318535	3.050429e+02
782.0009669250652	3.050426e+02
782.99979126322205	3.050423e+02
784.00180584778775	3.050419e+02
785.000718482279581	3.050413e+02
785.999630910320093	3.050409e+02
787.001705041564151	3.050403e+02
788.000687060873929	3.050397e+02
788.999679069346712	3.050392e+02
790.001799294788157	3.050388e+02
791.00080691062999	3.050384e+02
791.999844117728003	3.050381e+02
793.001993969095906	3.050379e+02
794.000966800151218	3.050377e+02
794.999942767752714	3.050375e+02
796.00203511447296	3.050373e+02
797.000912795778845	3.050371e+02
797.999751084765876	3.050369e+02
799.001713528207233	3.050369e+02
800.000454440699627	3.050368e+02
801.002241000881895	3.050368e+02
802.000856245447949	3.050369e+02
802.999368155851926	3.050369e+02
804.000833595743188	3.050370e+02
805.002199796077662	3.050372e+02
806.000346019475728	3.050374e+02
807.001440859475451	3.050375e+02
807.999245983307446	3.050376e+02
809.000128309491515	3.050378e+02
810.000864117082187	3.050379e+02
811.001420011989126	3.050380e+02
812.001905023865561	3.050381e+02
812.999153290927325	3.050382e+02
813.999350237473664	3.050382e+02
814.999438581911477	3.050382e+02
815.999447768822051	3.050382e+02
816.999279288317098	3.050380e+02
818.002102224058376	3.050377e+02
819.001719220884183	3.050374e+02
820.001183761825473	3.050370e+02
821.000476742127034	3.050364e+02
821.999673838911008	3.050358e+02
823.001859326372028	3.050352e+02
824.000718554078958	3.050344e+02
824.999458661203676	3.050337e+02
826.001210301132232	3.050331e+02
826.999653257986893	3.050325e+02
828.001105533574105	3.050317e+02
828.999335687443136	3.050310e+02
830.000529763559939	3.050303e+02
831.001598851738777	3.050295e+02
831.999471876174653	3.050287e+02
833.00034551339013	3.050279e+02
834.001094936982668	3.050270e+02
835.00178780712838	3.050260e+02
835.999271436297022	3.050251e+02
836.999788136548887	3.050241e+02
838.000249907665079	3.050232e+02
839.000643757490025	3.050225e+02
840.000942936848446	3.050218e+02
841.001168697302774	3.050212e+02
842.001315722930485	3.050207e+02
843.001359850390941	3.050202e+02
844.001311164206868	3.050198e+02
845.001172489141254	3.050194e+02
846.000928682838889	3.050190e+02
847.000587439160086	3.050186e+02
848.000160700968195	3.050182e+02
848.999644778775064	3.050178e+02
850.002168864845771	3.050174e+02
851.001500075402532	3.050169e+02
852.000763347695283	3.050164e+02
852.999963043318076	3.050159e+02
853.99911178531795	3.050153e+02
855.001337527859391	3.050147e+02
856.00039932528091	3.050140e+02
856.999428407878327	3.050132e+02
858.001551318152792	3.050125e+02
859.000524378874275	3.050116e+02
859.999472430120704	3.050107e+02
861.00151974374694	3.050098e+02
862.000423173791205	3.050087e+02
862.999305622928432	3.050077e+02
864.001288623479695	3.050065e+02
865.000125306642531	3.050053e+02
866.002058523844426	3.050039e+02
867.000853435777458	3.050024e+02
867.999646963833811	3.050008e+02
869.001580187394438	3.049990e+02
870.000428668185918	3.049970e+02
870.999330277803665	3.049948e+02
872.001423678076094	3.049926e+02
873.000481503584638	3.049904e+02
873.999635259058209	3.049883e+02
874.998884838400045	3.049864e+02
876.001343829848338	3.049846e+02
877.000748918013983	3.049829e+02
878.000203920012268	3.049813e+02
878.999688958827392	3.049799e+02
879.999185334458161	3.049785e+02
880.998678039360698	3.049772e+02
882.001279858053294	3.049760e+02
883.000738569130021	3.049748e+02
884.000176402759507	3.049737e+02
884.999594773054696	3.049726e+02
885.998995857796899	3.049716e+02
887.001503956386841	3.049706e+02
888.000871981554951	3.049697e+02
889.000221075109494	3.049689e+02
889.999548024307273	3.049681e+02
890.998849871062475	3.049674e+02
892.001245993852081	3.049667e+02
893.00048710633871	3.049661e+02
893.999690869693268	3.049655e+02
894.998850319369353	3.049650e+02
896.00107884306783	3.049645e+02
897.000121915746831	3.049640e+02
897.999089995354211	3.049636e+02
899.001092946738595	3.049632e+02
899.999877625642853	3.049629e+02
901.001678419426526	3.049625e+02
902.000247917485012	3.049622e+02
902.998706099201513	3.049618e+02
904.000176116934881	3.049613e+02
905.001544202869354	3.049608e+02
905.99970039505115	3.049602e+02
907.000893677324484	3.049595e+02
907.998896586539217	3.049587e+02
908.999956626649237	3.049579e+02
910.000964275135516	3.049570e+02
910.998809104657198	3.049559e+02
911.999733761417133	3.049549e+02
913.000624913921115	3.049537e+02
914.001485200854177	3.049525e+02