# Region type : patch sidenode2U_0_Inlet_0
#   Faces  : 172
#   Area   : 1.728441e-02
#        Time	areaAverage(T)
     0.999427	3.031500e+02
      2.00049	3.031500e+02
      3.00031	3.031500e+02
      3.99973	3.031500e+02
      4.99982	3.031500e+02
      6.00096	3.031500e+02
      7.00036	3.031499e+02
      8.00025	3.031498e+02
      8.99988	3.031496e+02
    10.001085	3.031493e+02
    11.000692	3.031490e+02
    12.001192	3.031490e+02
    12.999654	3.031489e+02
    14.001553	3.031456e+02
  15.00191378	3.031256e+02
  15.99990726	3.030840e+02
  17.00021302	3.030498e+02
  18.00201162	3.030471e+02
    19.001665	3.030676e+02
 20.001063064	3.030905e+02
 21.000223408	3.031082e+02
 22.000868674	3.031210e+02
 22.999568146	3.031302e+02
  24.00203262	3.031376e+02
25.00206209729	3.031440e+02
25.9997240433	3.031506e+02
27.00155800819	3.031579e+02
28.00198841907	3.031662e+02
29.00100132413	3.031752e+02
30.0012255059946	3.031848e+02
31.0020125996283	3.031945e+02
31.9997203434261	3.032042e+02
33.0000159367413	3.032143e+02
33.9999993471484	3.032248e+02
35.0001409482367123	3.032359e+02
36.0010399662744121	3.032475e+02
37.000256075600312	3.032593e+02
38.0011334139074748	3.032711e+02
39.0001093232681626	3.032825e+02
39.9994296677075454	3.032932e+02
41.001577972869228	3.033032e+02
42.000199945820512	3.033128e+02
43.0015357555295594	3.033227e+02
44.0000908474563985	3.033332e+02
44.999720034311153	3.033447e+02
46.0011036185372717	3.033571e+02
47.0017015365830488	3.033700e+02
48.001828578469862	3.033831e+02
49.0009987208578792	3.033961e+02
50.001646775172766	3.034088e+02
51.0004873107095733	3.034209e+02
52.0004965650810149	3.034324e+02
53.0016782245142934	3.034435e+02
54.0010911490910033	3.034542e+02
55.0018322131206503	3.034648e+02
56.0008311045826801	3.034754e+02
57.0009505745707656	3.034859e+02
58.0018173874204663	3.034966e+02
58.9998754286462415	3.035074e+02
60.0007253884735974	3.035185e+02
61.000729949421661	3.035296e+02
61.9994469747591523	3.035408e+02
62.9997307278246481	3.035520e+02
64.0016132336676264	3.035630e+02
65.0021195847200062	3.035739e+02
66.0013755148593475	3.035845e+02
66.9994618408717173	3.035950e+02
67.9995567282688285	3.036053e+02
69.0018710907051513	3.036155e+02
70.0005020403649496	3.036254e+02
71.0017759000867983	3.036352e+02
71.9997917061677697	3.036447e+02
73.0007626398363385	3.036540e+02
74.0017781164737585	3.036634e+02
74.9999419786135348	3.036729e+02
76.0015844890211554	3.036828e+02
77.00072239299773	3.036929e+02
78.0004746440082357	3.037031e+02
79.0007523688503994	3.037137e+02
80.0017080025030367	3.037246e+02
81.0004119802447349	3.037359e+02
81.9999292237897635	3.037478e+02
83.0001885797195058	3.037602e+02
84.0008505180802274	3.037729e+02
85.0015387397775584	3.037856e+02
86.0016440249805925	3.037983e+02
87.0005454702849761	3.038109e+02
88.0008545399135187	3.038235e+02
89.0021930695815655	3.038360e+02
90.0016302263138357	3.038486e+02
91.002174366868033	3.038614e+02
92.0010182300664496	3.038743e+02
93.0013450760332745	3.038877e+02
94.0003161743501465	3.039015e+02
95.0010570184568053	3.039158e+02
96.0007746328522842	3.039305e+02
96.9996630297850828	3.039457e+02
98.0009484938242394	3.039614e+02
99.0017864968606887	3.039776e+02
99.9993158549129504	3.039941e+02
100.999686726631666	3.040109e+02
101.999978489330886	3.040277e+02
103.000261993464633	3.040444e+02
104.000541499501338	3.040607e+02
105.000800443492778	3.040764e+02
106.001026051885219	3.040916e+02
107.001221026466325	3.041063e+02
108.001370521164162	3.041204e+02
109.001483834954172	3.041341e+02
110.001570880767829	3.041474e+02
111.001639397267027	3.041604e+02
112.001691850402395	3.041732e+02
113.001723550038278	3.041858e+02
114.001722531996805	3.041983e+02
115.001688189451627	3.042108e+02
116.001613455088133	3.042232e+02
117.001515885901682	3.042355e+02
118.001399825818325	3.042479e+02
119.00127979677535	3.042603e+02
120.001166177764588	3.042728e+02
121.001081732862403	3.042852e+02
122.001048584949245	3.042978e+02
123.001071870744425	3.043105e+02
124.001154706657402	3.043229e+02
125.001275712311497	3.043351e+02
126.001409099885151	3.043469e+02
127.001505571405914	3.043583e+02
128.001520918692876	3.043694e+02
129.001402911285169	3.043805e+02
130.001116511936488	3.043914e+02
131.000614246332248	3.044022e+02
131.999921018561707	3.044130e+02
133.002057892161417	3.044237e+02
134.001047481116501	3.044341e+02
134.999918542921648	3.044442e+02
136.001802808679997	3.044534e+02
137.000722192789738	3.044612e+02
137.999722857611772	3.044675e+02
139.001822047630924	3.044726e+02
140.001006477596889	3.044771e+02
141.000279937221819	3.044812e+02
141.999610839514531	3.044845e+02
143.002000997207233	3.044864e+02
144.001416430672435	3.044865e+02
145.000845281827281	3.044839e+02
146.000219852035571	3.044786e+02
146.999516132038053	3.044708e+02
148.001580804985281	3.044616e+02
149.00037623196738	3.044518e+02
150.002041994228136	3.044423e+02
151.000659972712299	3.044333e+02
151.999442445215436	3.044251e+02
153.001677289877819	3.044179e+02
154.00172177073722	3.044116e+02
154.999891828328799	3.044063e+02
155.999586603544287	3.044028e+02
157.001135382558516	3.044028e+02
158.001515024317882	3.044066e+02
159.000452904609233	3.044123e+02
160.000936841011566	3.044173e+02
160.999840760413548	3.044211e+02
162.000128449045548	3.044243e+02
163.001721118222179	3.044270e+02
164.001466615174991	3.044289e+02
164.999469516720637	3.044310e+02
166.001895769050151	3.044339e+02
166.999623230678878	3.044381e+02
168.001980176455106	3.044438e+02
168.999797111832464	3.044513e+02
169.999327931056797	3.044616e+02
171.000741704657912	3.044750e+02
172.000933317836058	3.044905e+02
172.999858258248878	3.045064e+02
174.000459309810481	3.045218e+02
174.999230964081022	3.045367e+02
176.001823974840363	3.045505e+02
177.001677528293413	3.045626e+02
178.001897432278639	3.045725e+02
178.999477284530741	3.045794e+02
180.000876929608779	3.045812e+02
181.000129702013908	3.045738e+02
182.000620718633769	3.045614e+02
182.999341833524653	3.045518e+02
183.999269602900625	3.045366e+02
185.000290159403136	3.045025e+02
185.999138254646653	3.044558e+02
187.00192819901423	3.044137e+02
188.002100753132737	3.043827e+02
188.999401948011354	3.043540e+02
190.000009576696584	3.043222e+02
191.000602512052552	3.042980e+02
192.000903248552049	3.042991e+02
193.000646632122681	3.043319e+02
193.999514181629451	3.043879e+02
195.000731162499932	3.044513e+02
196.001754937982156	3.045084e+02
197.000071045045672	3.045519e+02
198.002007170686312	3.045841e+02
199.000916881997426	3.046124e+02
199.999612353780066	3.046374e+02
201.001058917549273	3.046489e+02
202.002077889812654	3.046461e+02
202.99938204591723	3.046359e+02
204.002095543813795	3.046181e+02
205.000992474260471	3.045896e+02
205.999660504312885	3.045501e+02
207.001238886837569	3.044960e+02
207.999298004801517	3.044293e+02
208.999745348981605	3.043618e+02
210.001458903139991	3.042978e+02
211.000242198910087	3.042381e+02
212.001905389240108	3.041881e+02
213.000223120931452	3.041485e+02
214.001889103766104	3.041144e+02
215.001311938262972	3.040855e+02
216.001580318367957	3.040640e+02
217.001009526045266	3.040475e+02
218.001233887792552	3.040308e+02
219.000201883343749	3.040164e+02
220.000910902737701	3.040074e+02
220.999826318389324	3.040017e+02
221.999484042010948	3.040006e+02
222.999573556478197	3.040095e+02
223.999571260102471	3.040266e+02
224.999167544001807	3.040463e+02
226.001862355567113	3.040715e+02
227.00167849316307	3.041022e+02
228.001230841940497	3.041300e+02
229.000424212989913	3.041552e+02
229.99931272453972	3.041796e+02
231.00035149821332	3.041947e+02
232.000417678477731	3.042029e+02
232.999637483021473	3.042119e+02
234.000027860813049	3.042154e+02
235.001748350051628	3.042093e+02
235.999212579281817	3.042024e+02
237.000768684014673	3.041938e+02
238.000500060854421	3.041757e+02
238.999379413751882	3.041519e+02
240.000061065156473	3.041233e+02
240.999783874352488	3.040847e+02
241.999217412811873	3.040386e+02
243.001333347997786	3.039880e+02
244.000329816981377	3.039342e+02
244.999756118580478	3.038794e+02
245.999764393046519	3.038273e+02
247.000524241728925	3.037826e+02
247.999354188237049	3.037509e+02
248.999494081416515	3.037375e+02
250.001110696175971	3.037465e+02
251.001532993736845	3.037768e+02
252.000921614597075	3.038214e+02
252.999282849031687	3.038703e+02
253.999850497343544	3.039155e+02
255.00004543105274	3.039507e+02
256.000365920649983	3.039749e+02
257.001261638921392	3.039916e+02
257.999548103657958	3.040026e+02
258.99971364117971	3.040075e+02
260.002149025808819	3.040077e+02
261.000921947821837	3.040083e+02
261.99950686948381	3.040093e+02
263.001191272204949	3.040166e+02
263.999778419957408	3.040332e+02
265.00119059435292	3.040580e+02
265.999549940802126	3.040877e+02
267.000749356106553	3.041194e+02
268.000742203287302	3.041486e+02
269.00002621556996	3.041726e+02
270.002192130799926	3.041931e+02
271.001116008764257	3.042105e+02
271.999828284674436	3.042237e+02
273.001202936759398	3.042316e+02
274.001992594249884	3.042303e+02
274.999358152233697	3.042189e+02
276.000078489080693	3.042002e+02
277.001423281625193	3.041747e+02
277.999774269456566	3.041421e+02
279.000338809060509	3.041030e+02
279.999803239072378	3.040628e+02
281.00199923250301	3.040281e+02
282.001237742896592	3.040034e+02
283.000845865006283	3.039886e+02
284.000919283847736	3.039798e+02
285.001505169815289	3.039743e+02
286.001983379887918	3.039681e+02
287.000860649189406	3.039591e+02
287.99976925718363	3.039495e+02
289.001216652992298	3.039423e+02
289.999289276536729	3.039367e+02
291.001202684429529	3.039294e+02
292.001880769330967	3.039167e+02
293.001939873465119	3.038965e+02
294.001406762787269	3.038715e+02
294.999860841462578	3.038444e+02
296.00082332633508	3.038146e+02
296.999440942767023	3.037810e+02
297.999750996092871	3.037427e+02
299.001606963360757	3.037011e+02
300.00096349475109	3.036569e+02
300.999913314513492	3.036149e+02
302.001050523417859	3.035809e+02
303.001211162612037	3.035566e+02
304.000530831946662	3.035385e+02
304.999600659278087	3.035241e+02
306.001009509919697	3.035132e+02
307.001474429075984	3.035018e+02
308.001896955747839	3.034855e+02
309.00215953038952	3.034658e+02
310.002016522719316	3.034449e+02
311.002156067684552	3.034238e+02
312.000057874843549	3.034043e+02
313.001700906769599	3.033896e+02
314.000664442998186	3.033804e+02
314.99977162945703	3.033750e+02
316.001939997220234	3.033711e+02
317.000997667292268	3.033682e+02
317.999963426011846	3.033659e+02
319.001791186184562	3.033644e+02
320.000219021556404	3.033636e+02
321.001332443899855	3.033643e+02
322.002120766446581	3.033691e+02
322.999613956139115	3.033832e+02
324.000053809379779	3.034136e+02
325.000468122121561	3.034603e+02
326.000890696256192	3.035118e+02
327.001340404046516	3.035520e+02
328.00182603880279	3.035753e+02
328.999278542550144	3.035841e+02
329.999826816678308	3.035850e+02
331.000443477589613	3.035812e+02
332.001169817488744	3.035723e+02
333.002032037401875	3.035589e+02
333.999965515217639	3.035428e+02
335.001063632408773	3.035263e+02
335.999158109576854	3.035119e+02
337.000345463513611	3.035005e+02
338.001581848732201	3.034921e+02
338.999866861473265	3.034860e+02
340.001419974520957	3.034821e+02
341.000218753709873	3.034799e+02
341.99940043036537	3.034793e+02
343.002081691835315	3.034804e+02
344.002165716201716	3.034823e+02
344.999681204456522	3.034838e+02
346.000781392031456	3.034843e+02
346.999334514526993	3.034831e+02
348.001509094679818	3.034802e+02
349.001161782293025	3.034761e+02
350.001326394200078	3.034718e+02
351.001923782794222	3.034684e+02
351.999787371269576	3.034666e+02
353.00099769186096	3.034669e+02
353.999316873669443	3.034698e+02
355.00082920103489	3.034754e+02
355.999300697844262	3.034833e+02
357.000823793166319	3.034926e+02
357.999158030478213	3.035021e+02
359.00039992939594	3.035109e+02
360.001480671131844	3.035180e+02
360.9992815597804	3.035224e+02
361.999832472127878	3.035236e+02
362.999959745167416	3.035213e+02
363.999605892666068	3.035155e+02
365.001835951716942	3.035064e+02
366.000550017272076	3.034938e+02
367.0018850279655	3.034773e+02
367.999670433758126	3.034570e+02
369.000128039733795	3.034329e+02
370.000214705158442	3.034057e+02
370.999868519623192	3.033764e+02
371.999156450469172	3.033467e+02
373.001216022510619	3.033186e+02
373.999974084365817	3.032952e+02
375.001560862041572	3.032805e+02
375.999861740929703	3.032778e+02
377.000967028724972	3.032883e+02
378.001810983407267	3.033091e+02
378.999377343020058	3.033353e+02
379.999844133061458	3.033616e+02
381.000195256176255	3.033833e+02
382.000470770755555	3.033983e+02
383.000719578955398	3.034061e+02
384.000990581364249	3.034074e+02
385.001323372423997	3.034035e+02
386.001754888625783	3.033956e+02
386.999259078537648	3.033845e+02
387.999985820435654	3.033704e+02
389.000904470221769	3.033538e+02
390.002048686420665	3.033353e+02
391.000391269022714	3.033160e+02
392.002080357299462	3.032949e+02
393.001021889200786	3.032743e+02
394.000313761127586	3.032537e+02
394.999966805718827	3.032340e+02
396.000000737495156	3.032169e+02
397.000431194506007	3.032043e+02
398.001243466568894	3.031972e+02
398.999326681304808	3.031962e+02
400.000751341692762	3.032007e+02
400.999281060359692	3.032094e+02
402.000994149161556	3.032215e+02
402.999669211328353	3.032360e+02
404.001383904857562	3.032507e+02
404.999927130870162	3.032644e+02
406.001391002587809	3.032764e+02
406.999601684736604	3.032860e+02
408.000681472226745	3.032928e+02
409.001550340285974	3.032962e+02
410.002200812724368	3.032957e+02
410.999564337494576	3.032909e+02
411.999771379263905	3.032815e+02
412.999742635731366	3.032671e+02
413.999472666726717	3.032470e+02
415.002027021528761	3.032210e+02
416.001265735712195	3.031896e+02
417.00027961065382	3.031537e+02
418.002168361128668	3.031150e+02
419.000830570643586	3.030759e+02
419.999348062550951	3.030396e+02
421.000807412155893	3.030102e+02
422.002161809745814	3.029914e+02
423.000363478224813	3.029863e+02
424.001518449690877	3.029957e+02
424.999464893304832	3.030179e+02
426.00030369292142	3.030493e+02
427.00099127452637	3.030854e+02
428.001568160606212	3.031214e+02
429.002064812169294	3.031520e+02
429.99944102865561	3.031723e+02
430.999824061049083	3.031831e+02
432.000154087404724	3.031848e+02
433.000424325204449	3.031795e+02
434.00062092770537	3.031689e+02
435.000747573658373	3.031537e+02
436.00084101232062	3.031345e+02
437.000947099993482	3.031114e+02
438.001104957034727	3.030843e+02
439.001372516108916	3.030537e+02
440.001793093184403	3.030206e+02
440.999341095092859	3.029863e+02
442.000174895068085	3.029524e+02
443.001292886892941	3.029225e+02
443.999676892359332	3.028985e+02
445.001468249921118	3.028824e+02
446.0005412841561	3.028780e+02
446.999933551698859	3.028864e+02
447.99957269268856	3.029051e+02
448.99935313418041	3.029332e+02
449.99913949586778	3.029671e+02
451.001905425055099	3.030020e+02
452.001449724326449	3.030348e+02
453.000827018742655	3.030636e+02
454.000060016313171	3.030872e+02
455.002198157437931	3.031052e+02
456.001073655338701	3.031172e+02
456.999732738333421	3.031231e+02
458.00123783219243	3.031228e+02
458.999413706459279	3.031158e+02
460.000163836696743	3.031016e+02
461.000336822645636	3.030802e+02
462.000008779407551	3.030497e+02
462.999244201045997	3.030090e+02
464.001249828436698	3.029590e+02
465.000203846986892	3.029020e+02
465.999385247298903	3.028402e+02
467.001996124994605	3.027785e+02
468.001911059253757	3.027213e+02
469.002115217306198	3.026735e+02
469.999556206629677	3.026416e+02
471.000370882605068	3.026321e+02
472.001484397526838	3.026508e+02
472.999698394739198	3.026971e+02
474.000987097669451	3.027603e+02
475.002187011345541	3.028278e+02
476.000185397848838	3.028874e+02
477.001116975836737	3.029350e+02
478.001946023577034	3.029689e+02
478.999609814288533	3.029892e+02
480.000200582974514	3.029988e+02
481.000640765223636	3.030009e+02
482.000880314070741	3.029975e+02
483.000829945069484	3.029884e+02
484.000391984001851	3.029730e+02
484.999473983508892	3.029505e+02
486.001053223926704	3.029192e+02
487.002066538891711	3.028779e+02
487.999538386941651	3.028267e+02
488.999719400701622	3.027664e+02
489.999787496733063	3.026995e+02
490.999996222002039	3.026307e+02
492.000537937488446	3.025632e+02
493.001528185545851	3.025028e+02
494.000043348333691	3.024591e+02
494.999208302570253	3.024412e+02
496.002054096217819	3.024537e+02
496.999285033710748	3.024942e+02
497.999897188854902	3.025526e+02
499.000681167292043	3.026163e+02
500.001558474786805	3.026780e+02
500.999446010016641	3.027325e+02
502.000461577364092	3.027781e+02
503.001519412383175	3.028136e+02
503.999515874213841	3.028393e+02
505.000534591473297	3.028580e+02
506.001509888547616	3.028697e+02
507.002099204861224	3.028740e+02
508.001952459607026	3.028719e+02
509.000755663345956	3.028615e+02
510.001486862218997	3.028404e+02
511.001232487120603	3.028072e+02
512.000177563831585	3.027611e+02
513.001789287909901	3.027011e+02
514.00046415512486	3.026297e+02
514.99955479442508	3.025515e+02
515.999219044049141	3.024725e+02
516.999511772298206	3.023969e+02
518.000472374905598	3.023335e+02
519.002131619636771	3.022924e+02
520.001384632439681	3.022810e+02
521.001150454765366	3.023023e+02
522.001295794907037	3.023514e+02
523.001754521802923	3.024158e+02
523.999434406018167	3.024888e+02
525.000470145184181	3.025616e+02
526.001803413179573	3.026251e+02
527.000354396031071	3.026731e+02
527.99915328792224	3.027088e+02
529.001163035952914	3.027342e+02
529.999964345861144	3.027482e+02
531.0012454994461	3.027522e+02
532.001321133686361	3.027484e+02
532.999861796665527	3.027375e+02
534.000023953975301	3.027183e+02
535.001875234300201	3.026886e+02
535.99940115798131	3.026454e+02
536.99917090518386	3.025860e+02
538.001702907333424	3.025135e+02
539.001307213403038	3.024331e+02
540.001295571197147	3.023466e+02
541.001852747266639	3.022613e+02
542.000113862146009	3.021880e+02
542.99925261236649	3.021342e+02
543.999244945956434	3.021068e+02
544.999955860121077	3.021096e+02
546.001297232400361	3.021414e+02
547.000192963765812	3.021947e+02
547.999705276214399	3.022604e+02
548.9999173700038	3.023331e+02
550.000837994252493	3.024041e+02
550.999345650914734	3.024673e+02
552.001515635922487	3.025202e+02
553.001105488295934	3.025614e+02
554.00082469309541	3.025871e+02
555.000167760328509	3.025969e+02
556.001365889407907	3.025960e+02
557.000740602278597	3.025880e+02
558.001320209851997	3.025748e+02
559.000110213892867	3.025562e+02
560.000262559516386	3.025268e+02
560.99926184051003	3.024820e+02
562.0006160463181	3.024226e+02
563.00174009765351	3.023510e+02
564.00014104622926	3.022688e+02
564.999154569082179	3.021842e+02
566.001965079634488	3.021080e+02
566.999655573543009	3.020494e+02
568.001384470371249	3.020144e+02
569.000945280324004	3.020068e+02
570.001321185949223	3.020246e+02
570.999458110319438	3.020644e+02
572.001425298497111	3.021208e+02
573.001173122025079	3.021861e+02
574.001841467247459	3.022554e+02
575.000341047316283	3.023244e+02
575.999699363241348	3.023847e+02
576.999717356763654	3.024288e+02
577.999989358568769	3.024539e+02
578.999885849153543	3.024625e+02
580.001639232646653	3.024617e+02
581.001398899649303	3.024583e+02
582.001953020691985	3.024530e+02
583.000404394710699	3.024420e+02
584.000040789207219	3.024210e+02
585.000977102296929	3.023866e+02
586.000530345756715	3.023364e+02
586.999390607787518	3.022725e+02
588.001144122878259	3.021962e+02
589.000134475393111	3.021139e+02
589.999604690043157	3.020335e+02
590.999772563084207	3.019647e+02
592.000714664528573	3.019146e+02
592.999309139145566	3.018869e+02
594.001520821552276	3.018816e+02
595.001288064761411	3.018946e+02
596.001723137116073	3.019228e+02
596.999821477810087	3.019644e+02
598.00163901190831	3.020138e+02
599.001081933450678	3.020651e+02
600.001234037939525	3.021153e+02
601.001940910154531	3.021628e+02
601.999837888485331	3.022055e+02
603.00074770668266	3.022401e+02
604.001417181059651	3.022645e+02
605.001687215290872	3.022795e+02
606.001423520980666	3.022848e+02
607.000513557763156	3.022783e+02
608.00201169442164	3.022577e+02
609.000056043756331	3.022225e+02
610.001065509754426	3.021732e+02
610.999322067287608	3.021118e+02
612.001290099475682	3.020448e+02
613.00120910368264	3.019826e+02
613.999153626805764	3.019375e+02
615.001215520064648	3.019214e+02
616.001098613251429	3.019395e+02
617.001642391969199	3.019834e+02
617.999697263319149	3.020390e+02
619.001421452946829	3.020961e+02
620.000708426598749	3.021493e+02
621.000582813967867	3.021945e+02
622.001112512948225	3.022303e+02
622.999333074703259	3.022591e+02
624.001526337826249	3.022825e+02
625.001797992750539	3.023007e+02
626.00046178708601	3.023142e+02
627.000823918297669	3.023240e+02
627.99971611159765	3.023314e+02
629.000134610487748	3.023367e+02
630.001969376633838	3.023399e+02
631.002048189577636	3.023384e+02
632.0004285707289	3.023312e+02
633.000140181323104	3.023195e+02
634.000770489483443	3.023055e+02
635.001598749550453	3.022923e+02
636.002066656809347	3.022850e+02
637.001786905906442	3.022895e+02
637.999504703499269	3.023040e+02
639.000633690830796	3.023270e+02
639.99918786834246	3.023512e+02
641.001685653684603	3.023700e+02
641.999542269594372	3.023835e+02
642.999953332245013	3.023888e+02
644.000576416523131	3.023797e+02
645.001570642922729	3.023502e+02
645.999643539166868	3.023047e+02
647.000897338513028	3.022659e+02
647.999393108298932	3.022666e+02
649.001851529181295	3.023017e+02
649.999539178774853	3.023248e+02
651.001794109835942	3.023021e+02
651.999859218567849	3.022333e+02
652.999544433281699	3.021441e+02
653.999801568561224	3.020754e+02
654.999489441358605	3.020445e+02
656.000943333250348	3.020500e+02
657.000535376491371	3.020804e+02
658.000870871285201	3.021260e+02
659.001878863745446	3.021758e+02
660.001233104330709	3.022163e+02
661.000437464629726	3.022379e+02
662.001318534737948	3.022346e+02
662.9991663123335	3.022106e+02
664.000285830275857	3.021815e+02
665.000884472697294	3.021668e+02
666.000710235087126	3.021720e+02
667.000122997112726	3.021780e+02
668.001635112096551	3.021567e+02
669.000913257929483	3.021073e+02
669.999420760518205	3.020489e+02
670.999287944031153	3.020150e+02
672.002072327780297	3.020296e+02
673.000725547593561	3.020821e+02
674.001820541744451	3.021569e+02
675.000683714600314	3.022435e+02
675.999399580010731	3.023277e+02
677.002156536049142	3.024056e+02
678.000592297521962	3.024741e+02
679.002148617484863	3.025434e+02
680.001784788341638	3.026096e+02
680.999746126992932	3.026407e+02
682.001551099061089	3.026435e+02
683.001957194035526	3.026364e+02
683.99943363886166	3.026051e+02
684.999119040938353	3.025298e+02
686.000169280818113	3.024203e+02
687.000927326243527	3.022978e+02
688.001734230271609	3.022309e+02
689.000385540699199	3.022580e+02
690.000102986032516	3.023453e+02
691.000584174011692	3.024545e+02
692.001278119513586	3.025646e+02
692.998810184072113	3.026680e+02
694.000540359068509	3.027589e+02
694.999010773474538	3.028295e+02
695.999565635484373	3.028638e+02
697.001150977339762	3.028565e+02
698.001398222010494	3.028360e+02
698.999725805045159	3.028379e+02
700.001498724736734	3.028461e+02
700.999760782747671	3.028034e+02
702.00030560611242	3.026812e+02
703.001545842853716	3.024738e+02
703.998546867952086	3.022963e+02
705.000921811799685	3.022616e+02
705.99962011738819	3.023339e+02
706.999650543847679	3.024528e+02
708.000666672426519	3.025851e+02
708.999237894717226	3.027086e+02
710.001269207781093	3.028093e+02
711.00068407292008	3.028880e+02
711.999619119693762	3.029471e+02
713.000526590509253	3.029794e+02
713.998803280099537	3.029951e+02
715.000794775426357	3.030211e+02
715.999806607808409	3.030491e+02
717.001147277659015	3.030221e+02
717.999618727621851	3.029046e+02
719.001377582509349	3.027115e+02
719.999845347823111	3.025639e+02
721.000439443962705	3.025059e+02
721.998876129608675	3.025340e+02
722.998944888288406	3.026300e+02
724.00114311208813	3.027582e+02
724.998866032413844	3.028889e+02
726.001106170699586	3.030020e+02
727.001242939658482	3.030885e+02
727.999926591871031	3.031508e+02
728.998559988906209	3.031934e+02
730.001622066776122	3.032174e+02
731.000663074018917	3.032310e+02
731.999073254380278	3.032434e+02
732.999937744622798	3.032319e+02
733.999652488256629	3.031631e+02
735.000101756232084	3.030086e+02
735.999935767415082	3.028380e+02
737.001555677275633	3.027686e+02
737.998609831378303	3.028055e+02
739.000917515005426	3.029001e+02
739.999579389089149	3.030122e+02
741.000865824989205	3.031246e+02
742.001221721286811	3.032252e+02
742.9998251475198	3.033028e+02
743.999381362686222	3.033583e+02
745.000661640020667	3.034011e+02
745.999052092078955	3.034336e+02
746.999024049784566	3.034508e+02
748.001289256029395	3.034463e+02
748.99998594164947	3.034115e+02
750.000493470887022	3.033335e+02
751.00118734312548	3.032019e+02
752.000933119647812	3.030976e+02
752.998936581822591	3.030702e+02
754.001276251013905	3.031082e+02
754.999151737409875	3.031799e+02
755.999553005113967	3.032602e+02
756.999766152413599	3.033356e+02
757.999815231926959	3.034032e+02
758.999249365374908	3.034625e+02
760.00074675962378	3.035112e+02
761.001075912032888	3.035461e+02
762.000603060413027	3.035658e+02
763.000135315137868	3.035688e+02
764.000348738217554	3.035532e+02
765.001515277069643	3.035192e+02
766.000180917357966	3.034745e+02
766.998575464161149	3.034389e+02
767.998928480878021	3.034272e+02
769.0008602609538	3.034384e+02
770.001352425349751	3.034663e+02
771.000882636136907	3.035046e+02
771.999918369505622	3.035469e+02
772.998806968452868	3.035863e+02
774.000941714459373	3.036189e+02
775.000334162326453	3.036422e+02
776.000158078921004	3.036556e+02
777.000362560647091	3.036607e+02
778.000837514654791	3.036624e+02
779.001444253866225	3.036649e+02
779.998932096626277	3.036707e+02
780.999294900777159	3.036821e+02
781.999342827852388	3.037017e+02
782.999108211269913	3.037306e+02
783.998685302788545	3.037671e+02
785.001268894906502	3.038079e+02
786.000626433951197	3.038483e+02
786.999811633585182	3.038856e+02
787.998820800601152	3.039183e+02
789.000829230188174	3.039470e+02
789.999847145920967	3.039726e+02
790.999171168364683	3.039964e+02
791.99902125678841	3.040194e+02
792.999571968755276	3.040422e+02
794.000942685735822	3.040655e+02
795.000039267211605	3.040894e+02
795.999824847008995	3.041133e+02
797.00004227907823	3.041367e+02
798.000352229098212	3.041590e+02
799.000463290113203	3.041802e+02
800.000268040779247	3.042005e+02
800.999871383825734	3.042200e+02
801.999438918668716	3.042388e+02
802.999162635716857	3.042568e+02
803.999150184644463	3.042743e+02
804.999489574434278	3.042913e+02
806.000217659127884	3.043078e+02
807.001365643889585	3.043238e+02
807.99976032352879	3.043397e+02
809.001484647565803	3.043552e+02
810.000193134515371	3.043705e+02
810.998851293064718	3.043854e+02
812.000488119036959	3.044006e+02
812.998858862165093	3.044161e+02
814.000173863743385	3.044325e+02
815.001341913480928	3.044497e+02
815.999389005496141	3.044676e+02
817.000736505305099	3.044865e+02
817.999345361780456	3.045062e+02
819.001619323223736	3.045262e+02
820.001459451422306	3.045457e+02
820.998791650032786	3.045641e+02
821.999835648828935	3.045808e+02
823.001443597258117	3.045958e+02
824.000479166678019	3.046090e+02
825.000061539974695	3.046209e+02
826.000154788647023	3.046318e+02
827.000746153186583	3.046419e+02
827.998702254763771	3.046516e+02
829.000257981022514	3.046607e+02
829.999128928896084	3.046694e+02
831.001489294805879	3.046777e+02
832.000998249167878	3.046852e+02
833.00071269008447	3.046917e+02
834.000566630974504	3.046967e+02
835.000478943295093	3.047002e+02
836.000322319766724	3.047019e+02
836.999960958526117	3.047017e+02
837.999563778135894	3.046994e+02
838.999168539985249	3.046952e+02
839.998830256297879	3.046893e+02
840.998615871871266	3.046825e+02
842.00153524296104	3.046753e+02
843.001203686922736	3.046688e+02
844.000720130980653	3.046644e+02
845.000127664575871	3.046617e+02
845.999454980046153	3.046588e+02
846.998688989041057	3.046550e+02
848.000944380996543	3.046511e+02
848.999961869892672	3.046482e+02
849.998889864095986	3.046479e+02
851.000849864152087	3.046511e+02
851.999601594189471	3.046578e+02
853.001515988440019	3.046669e+02
854.000482909667198	3.046770e+02
854.999656519237647	3.046865e+02
855.99893769661162	3.046956e+02
857.001409319402342	3.047058e+02
858.000850150787869	3.047186e+02
859.00046238222626	3.047344e+02
860.000338609620371	3.047532e+02
861.00055942064489	3.047753e+02
862.00111120017948	3.048003e+02
862.998744885252336	3.048270e+02
863.999562963220342	3.048540e+02
865.000333438597977	3.048803e+02
866.000718484703725	3.049051e+02
867.000381215335096	3.049283e+02
867.999326859724874	3.049462e+02
869.000831713809248	3.049528e+02
869.998731560339024	3.049465e+02
870.99914408124846	3.049339e+02
871.998948856785773	3.049247e+02
873.001251550978509	3.049293e+02
873.999438886644043	3.049562e+02
874.999250714949312	3.050058e+02
876.000331079936132	3.050671e+02
876.999152904660036	3.051251e+02
877.999109606079287	3.051714e+02
879.001226105603337	3.052069e+02
880.000590679232914	3.052354e+02
881.001133877869847	3.052546e+02
882.000326707818431	3.052598e+02
882.998714442753908	3.052541e+02
883.999566477270491	3.052421e+02
884.999493633542215	3.052260e+02
886.001481871908709	3.052063e+02
886.999074026412359	3.051825e+02
888.001361691307693	3.051524e+02
888.998687333536395	3.051211e+02
889.999823340214903	3.050936e+02
891.000206741294278	3.050815e+02
892.001524768773493	3.050814e+02
892.999632733533304	3.050943e+02
893.998726334299249	3.051116e+02
895.001251636017628	3.051200e+02
895.99966766697446	3.051190e+02
897.000914273651915	3.051201e+02
897.99999523874294	3.051289e+02
899.0009590909807	3.051441e+02
900.002533407159831	3.051625e+02
901.001649579413879	3.051797e+02
902.002471845652622	3.051919e+02
903.00037772942153	3.051963e+02
904.002809723267433	3.051914e+02
904.999844958107929	3.051765e+02
905.999949295843749	3.051554e+02
907.000155261807322	3.051348e+02
908.000934451877697	3.051194e+02
909.002379459235726	3.051094e+02
910.001638080394969	3.051041e+02
911.001827591161145	3.051009e+02
912.002161111704822	3.050984e+02
913.000765935814343	3.050942e+02
914.00165379520945	3.050855e+02