# Region type : patch node2U_6_Inlet_0
#   Faces  : 184
#   Area   : 1.734797e-02
#        Time	areaAverage(T)
     0.999427	3.001500e+02
      2.00049	3.001500e+02
      3.00031	3.001500e+02
      3.99974	3.001500e+02
     4.999837	3.001500e+02
      6.00101	3.001500e+02
     7.000448	3.001500e+02
     8.000372	3.001500e+02
     9.000012	3.001500e+02
   10.0011397	3.001500e+02
   11.0005124	3.001471e+02
   12.0006243	3.000937e+02
    13.001107	2.998418e+02
   13.9997402	2.995822e+02
  14.99964955	2.996256e+02
  15.99955708	2.997482e+02
  17.00134405	2.998401e+02
  18.00000337	2.999155e+02
  19.00006167	2.999667e+02
 20.001505108	3.000115e+02
 20.999254464	3.000501e+02
  22.00150266	3.000740e+02
 23.001714829	3.000854e+02
 23.999634984	3.000916e+02
25.00095516804	3.000976e+02
25.9996836352	3.001059e+02
26.99932842931	3.001158e+02
28.00029166142	3.001260e+02
28.99937441246	3.001354e+02
30.002134441893	3.001439e+02
31.002014765417	3.001511e+02
32.001552166551	3.001571e+02
33.000560257147	3.001615e+02
33.999249928093	3.001631e+02
35.00108530523362	3.001603e+02
36.00057592118466	3.001520e+02
37.00120630448001	3.001383e+02
38.00022932106895	3.001227e+02
39.00052258115672	3.001102e+02
40.0012943804983152	3.001051e+02
41.0019879837090926	3.001092e+02
41.9992708912271695	3.001220e+02
43.0021545135227328	3.001421e+02
44.0019391598090266	3.001675e+02
44.9992995861729526	3.001961e+02
46.0009844670853099	3.002264e+02
47.0014489491798813	3.002565e+02
48.0008801364990703	3.002851e+02
48.9995304912996801	3.003115e+02
50.0001794237682375	3.003357e+02
50.9993551299025256	3.003580e+02
51.9998205148969248	3.003788e+02
53.0015311001695864	3.003990e+02
54.0013696283965601	3.004189e+02
54.9993238877661597	3.004392e+02
56.0015339065886479	3.004602e+02
57.0018205760141825	3.004819e+02
58.000096433294182	3.005040e+02
58.9991359299691496	3.005266e+02
60.0016627635771727	3.005494e+02
61.0010778941215932	3.005720e+02
62.0000130700834902	3.005944e+02
63.0010986270090001	3.006165e+02
64.0009690790207202	3.006382e+02
64.9994918949116851	3.006594e+02
65.9998560646141783	3.006804e+02
66.9992477683962306	3.007011e+02
68.0009249354785794	3.007216e+02
69.0019475640447695	3.007419e+02
69.9993513960609874	3.007620e+02
70.9993591323269015	3.007820e+02
72.0020465187059102	3.008020e+02
73.0013581031466714	3.008218e+02
74.000423255190384	3.008413e+02
74.9993458644687365	3.008601e+02
76.0013508435945511	3.008779e+02
77.0005510755528491	3.008942e+02
78.0000113736252843	3.009091e+02
78.9992549610128236	3.009228e+02
80.0009720943383229	3.009355e+02
81.0020589541296232	3.009475e+02
81.9992454193614009	3.009592e+02
83.0014611672898184	3.009711e+02
83.9993628440124525	3.009836e+02
85.0020431376517678	3.009970e+02
86.000333987758637	3.010115e+02
87.0003695380874404	3.010269e+02
88.0020658759812022	3.010430e+02
88.9993795452335519	3.010593e+02
90.0015696379174557	3.010755e+02
90.9997903684166971	3.010914e+02
92.0003898830139377	3.011069e+02
93.0006194266289867	3.011219e+02
94.0007057145538596	3.011363e+02
95.0007997335581251	3.011499e+02
96.0009686444809773	3.011628e+02
97.0012373806239623	3.011748e+02
98.0016053172324462	3.011861e+02
99.0020344570527584	3.011965e+02
99.9994552294174497	3.012062e+02
100.999851234731452	3.012153e+02
102.000136850138333	3.012237e+02
103.000241500016131	3.012315e+02
104.000073061910427	3.012389e+02
104.999552930719901	3.012458e+02
106.001633206025147	3.012524e+02
107.000192996165325	3.012589e+02
108.001260471577879	3.012653e+02
109.001819915586253	3.012716e+02
110.001932009313407	3.012779e+02
111.001635624775176	3.012836e+02
112.000980310532839	3.012885e+02
113.000018915714335	3.012920e+02
114.001807672044521	3.012939e+02
115.000361508444968	3.012943e+02
116.001781982353393	3.012934e+02
117.000048097326257	3.012914e+02
118.00122264940498	3.012883e+02
118.999382617868164	3.012840e+02
120.000616562993542	3.012780e+02
121.002007225989203	3.012702e+02
122.000661640430124	3.012611e+02
122.999734831133267	3.012516e+02
123.99952262735836	3.012430e+02
125.000333848736219	3.012372e+02
125.999642959708595	3.012354e+02
127.000956414914896	3.012383e+02
128.001293686371213	3.012463e+02
129.000700621259568	3.012601e+02
130.002135701572797	3.012791e+02
130.999533849213833	3.013029e+02
131.999244240588723	3.013306e+02
133.001101245812436	3.013598e+02
134.0020971077968	3.013880e+02
135.002075643628388	3.014128e+02
136.000848975566782	3.014326e+02
137.001309026256649	3.014464e+02
138.000254544982795	3.014544e+02
139.000649575250975	3.014572e+02
139.999224934568531	3.014571e+02
141.002036637829093	3.014564e+02
141.999654446908238	3.014573e+02
143.001271960468813	3.014609e+02
144.000548532269903	3.014672e+02
145.00044839448563	3.014763e+02
146.000849050599697	3.014882e+02
147.001677167223932	3.015028e+02
147.99975047252525	3.015198e+02
149.001369451029944	3.015384e+02
150.000282434108982	3.015571e+02
150.999551328031998	3.015759e+02
151.999184896249147	3.015954e+02
152.999208185270845	3.016145e+02
153.999585696359787	3.016306e+02
155.00029833082661	3.016401e+02
156.001343237128225	3.016417e+02
156.999457705577299	3.016386e+02
158.000686168546764	3.016366e+02
159.001776087131674	3.016396e+02
159.999561059721657	3.016471e+02
161.000550527382018	3.016572e+02
162.001972559951867	3.016682e+02
163.000888609676053	3.016759e+02
164.000316687785954	3.016755e+02
165.000096140130211	3.016663e+02
166.000088612179667	3.016528e+02
167.000061340522421	3.016400e+02
167.999782828424799	3.016294e+02
168.999172341489157	3.016212e+02
170.001230534148533	3.016159e+02
170.999544804163264	3.016156e+02
172.00045496321485	3.016230e+02
173.000757901779707	3.016377e+02
174.000444045117518	3.016603e+02
174.999760596408947	3.016947e+02
176.002157779350711	3.017416e+02
177.001661582702695	3.017945e+02
178.001628294344187	3.018377e+02
178.999162606507298	3.018570e+02
180.000503473761029	3.018516e+02
180.999207866690625	3.018289e+02
182.001208593017452	3.017958e+02
183.000047488950003	3.017568e+02
184.001808139786192	3.017152e+02
184.999937399233318	3.016746e+02
186.000595667805044	3.016364e+02
187.000530755139152	3.016024e+02
187.999425330199387	3.015745e+02
189.000062339945401	3.015452e+02
189.999357851741564	3.014976e+02
191.001057008974414	3.014317e+02
191.999795576908383	3.013652e+02
193.002046035564831	3.013198e+02
194.001168212745995	3.012996e+02
195.000232847940111	3.012903e+02
195.99953641592225	3.012749e+02
196.999439237675062	3.012527e+02
197.999269378639354	3.012348e+02
199.000650340503455	3.012232e+02
200.000842022656059	3.012184e+02
201.00119110761409	3.011952e+02
202.001134602567248	3.011579e+02
202.999417775043128	3.011245e+02
204.000827370954454	3.010995e+02
205.000559713225243	3.010825e+02
206.000502514791634	3.010701e+02
207.00011763453864	3.010589e+02
207.999195525308778	3.010416e+02
209.000671541921633	3.010061e+02
210.001817201873507	3.009438e+02
211.0002458890323	3.008514e+02
211.999364130299796	3.007422e+02
213.001839980993253	3.006373e+02
214.000870215088923	3.005489e+02
215.002023773923156	3.004787e+02
216.001504856122665	3.004272e+02
217.002189670235424	3.003952e+02
218.001143521538211	3.003809e+02
219.001212277794565	3.003830e+02
219.999323567592427	3.004035e+02
221.002031393932299	3.004452e+02
222.000217558785977	3.005049e+02
222.99997324448853	3.005780e+02
224.001867206834618	3.006599e+02
225.000375206176443	3.007400e+02
226.00200082573221	3.008114e+02
227.000972114187221	3.008668e+02
228.000539892764351	3.009070e+02
229.000893584517286	3.009344e+02
229.999159920018428	3.009478e+02
231.001639840260879	3.009507e+02
231.999283063040082	3.009492e+02
233.00130211069677	3.009475e+02
234.001698960598503	3.009464e+02
235.000597990278322	3.009454e+02
236.001193587127887	3.009450e+02
237.000556169397072	3.009455e+02
238.001863471893813	3.009464e+02
239.002111919382003	3.009478e+02
240.001418570662111	3.009494e+02
240.999928434963607	3.009508e+02
242.000753346005581	3.009534e+02
243.000790839895984	3.009576e+02
244.000120610590187	3.009614e+02
245.0016559814066	3.009646e+02
246.000482859716641	3.009665e+02
246.99990715638009	3.009660e+02
247.999403010268622	3.009608e+02
249.001563930534189	3.009473e+02
249.99991638000995	3.009219e+02
251.00124377511591	3.008833e+02
252.000612908785769	3.008336e+02
253.001586776589619	3.007799e+02
254.001036030762123	3.007312e+02
254.999975551401036	3.006936e+02
256.000901604547437	3.006700e+02
257.000429744924418	3.006605e+02
258.001671223638084	3.006640e+02
259.001589548794925	3.006791e+02
260.000266655218695	3.007057e+02
261.000969535167712	3.007429e+02
262.000494430921947	3.007819e+02
263.002051357954429	3.008132e+02
263.999663054152222	3.008347e+02
264.999816340629877	3.008437e+02
265.999646482167861	3.008382e+02
266.999122460407477	3.008222e+02
268.001488989346399	3.008021e+02
269.000493605175279	3.007831e+02
270.001990224823089	3.007669e+02
270.999337872084311	3.007539e+02
272.001339823267472	3.007458e+02
273.001474013986467	3.007476e+02
273.999720630411105	3.007653e+02
274.999301622459257	3.008004e+02
276.00038858779908	3.008533e+02
277.000037429810845	3.009214e+02
277.99913815271151	3.009952e+02
279.001896234752223	3.010719e+02
279.999861762659407	3.011373e+02
280.999488359605721	3.011742e+02
282.000390167863145	3.011752e+02
283.001987050804189	3.011446e+02
284.000403045574728	3.010983e+02
285.001459538132849	3.010515e+02
286.001911629869539	3.010096e+02
287.001710184502201	3.009725e+02
288.000877315806576	3.009409e+02
288.999535921458005	3.009160e+02
290.000849147452925	3.009002e+02
291.001784583192489	3.008942e+02
291.999470265078116	3.008945e+02
293.000350726228248	3.009006e+02
294.001453998386921	3.009150e+02
294.99966250983897	3.009318e+02
296.001136649546311	3.009379e+02
296.999687551871489	3.009287e+02
298.001247068601629	3.009091e+02
298.999548585051969	3.008810e+02
300.000750059626967	3.008491e+02
301.001680673730334	3.008235e+02
301.999163971664927	3.008036e+02
302.999367282612582	3.007831e+02
303.999165754537898	3.007630e+02
305.001521887055901	3.007486e+02
306.000375119051853	3.007408e+02
307.001951876416115	3.007384e+02
308.000142042528466	3.007408e+02
309.001212895246681	3.007490e+02
309.999178614301854	3.007614e+02
311.000144539620237	3.007764e+02
312.001033491892031	3.007906e+02
313.001930242594824	3.008001e+02
313.999795573081769	3.008063e+02
315.000737111554429	3.008126e+02
316.001795102997278	3.008191e+02
317.00001860641413	3.008258e+02
318.001569055336915	3.008331e+02
319.000370431756608	3.008410e+02
319.999538897728996	3.008492e+02
321.002128177021007	3.008580e+02
322.001976849831294	3.008678e+02
323.002194787671499	3.008791e+02
323.999791101614449	3.008934e+02
325.000926405668565	3.009106e+02
325.999464392117318	3.009282e+02
327.001583740419449	3.009438e+02
328.001120124628414	3.009565e+02
329.001056924662748	3.009668e+02
330.001316807607054	3.009734e+02
331.001922953082271	3.009751e+02
331.999820607277798	3.009735e+02
333.001108668105701	3.009689e+02
333.999592450065279	3.009597e+02
335.001430012474145	3.009444e+02
336.000445902539866	3.009249e+02
336.999658818477883	3.009041e+02
338.002156064041969	3.008839e+02
339.001851563835544	3.008661e+02
340.001899743984723	3.008513e+02
340.999156465230499	3.008403e+02
341.999853923984119	3.008330e+02
343.000704997008711	3.008290e+02
344.001376858938784	3.008268e+02
345.00203887706607	3.008275e+02
345.999955215504826	3.008338e+02
347.000522663162087	3.008434e+02
348.000200029152836	3.008502e+02
349.000522755694988	3.008542e+02
350.001253613143035	3.008611e+02
351.000624273237918	3.008644e+02
351.999435802063715	3.008581e+02
353.002196744729815	3.008494e+02
354.001070048515999	3.008407e+02
355.001641036799754	3.008262e+02
355.999599629701663	3.008143e+02
357.000540487227624	3.008089e+02
358.000075444862205	3.008025e+02
358.999302800154226	3.007961e+02
360.001709987803054	3.007951e+02
361.000074298292702	3.007978e+02
362.000859290272558	3.008036e+02
363.001622746756937	3.008162e+02
364.001832563596452	3.008336e+02
365.001535463384243	3.008516e+02
366.00131467837474	3.008705e+02
367.00110538924082	3.008907e+02
368.000736030787152	3.009100e+02
369.000275218586978	3.009262e+02
369.999824276884169	3.009387e+02
370.999426774194205	3.009479e+02
372.002080612393968	3.009544e+02
373.001588932385062	3.009596e+02
374.001081446833666	3.009642e+02
375.000626116571937	3.009673e+02
376.000218547876443	3.009700e+02
376.999910591726973	3.009732e+02
377.999797780145002	3.009765e+02
378.999906813743962	3.009799e+02
380.000244808336674	3.009827e+02
381.000865619572778	3.009839e+02
382.001806304484546	3.009830e+02
382.999946272056377	3.009797e+02
384.001355606036498	3.009737e+02
384.99985631053687	3.009645e+02
386.0015402976166	3.009529e+02
387.000162701931743	3.009396e+02
388.001801501548812	3.009259e+02
389.000300444038373	3.009140e+02
390.001742707954349	3.009046e+02
390.99990443699852	3.009003e+02
392.000936197689441	3.009001e+02
393.00177492471073	3.009019e+02
393.999328852185783	3.009068e+02
394.999780108992752	3.009155e+02
396.000134804692266	3.009259e+02
397.00042004616688	3.009363e+02
398.000667031307955	3.009460e+02
399.000931769728538	3.009539e+02
400.001227470614424	3.009590e+02
401.001544797640236	3.009617e+02
402.001902596511854	3.009625e+02
402.999246021227464	3.009617e+02
403.999704245461601	3.009601e+02
405.000213976000339	3.009586e+02
406.000785726507388	3.009573e+02
407.001408508531085	3.009566e+02
408.002071314539194	3.009572e+02
408.999708595374841	3.009594e+02
410.000459919667492	3.009631e+02
411.001252828558734	3.009685e+02
412.002098628850092	3.009756e+02
412.999937502784405	3.009833e+02
414.000908309496879	3.009911e+02
415.001942485681127	3.009986e+02
415.999966713914432	3.010050e+02
417.001110452812043	3.010099e+02
417.999223947442431	3.010133e+02
419.000449839982025	3.010152e+02
420.001714127287812	3.010155e+02
420.999943618431587	3.010143e+02
422.001290078822194	3.010118e+02
422.999615985253001	3.010082e+02
424.001060314288623	3.010037e+02
424.999478222599919	3.009990e+02
426.001017745420938	3.009942e+02
426.999530720086625	3.009897e+02
428.001152874177365	3.009860e+02
428.999734515582077	3.009832e+02
430.001408625449528	3.009814e+02
431.000010340225799	3.009804e+02
432.001667839199797	3.009803e+02
433.000221815074497	3.009809e+02
434.001804251808949	3.009823e+02
435.000261415516377	3.009844e+02
436.001731095603191	3.009869e+02
437.000062707295285	3.009897e+02
438.001391866866186	3.009923e+02
438.999570770102707	3.009948e+02
440.000737846380048	3.009971e+02
441.00182111589163	3.009993e+02
441.999771361342766	3.010011e+02
443.000763413799177	3.010026e+02
444.001696459830953	3.010036e+02
444.999500435886944	3.010043e+02
446.00032752414711	3.010046e+02
447.001117645498596	3.010047e+02
448.001883226712721	3.010045e+02
448.999571098762033	3.010041e+02
450.00033578121878	3.010035e+02
451.00111711588346	3.010028e+02
452.001919501336943	3.010022e+02
452.999672442533097	3.010017e+02
454.000509144188925	3.010014e+02
455.001349657630726	3.010016e+02
456.002184940512961	3.010024e+02
456.999938224470498	3.010039e+02
458.000744652436538	3.010060e+02
459.001531729330225	3.010088e+02
459.999229727689283	3.010120e+02
460.999980922561065	3.010155e+02
462.000721221335311	3.010192e+02
463.001457879234579	3.010229e+02
464.002198438059679	3.010266e+02
464.999883907378376	3.010296e+02
466.000675712563577	3.010317e+02
467.001515884230287	3.010326e+02
467.999330505639648	3.010324e+02
469.000266807748972	3.010311e+02
470.001261089356149	3.010286e+02
470.999245163364833	3.010251e+02
472.000360361590424	3.010209e+02
473.001534471459308	3.010163e+02
473.99969086704948	3.010115e+02
475.000964073942441	3.010068e+02
475.999201404603866	3.010024e+02
477.000533716233122	3.009986e+02
478.001873839315238	3.009957e+02
479.000134933457161	3.009938e+02
480.001446950719014	3.009931e+02
480.999654544415421	3.009934e+02
482.00089220139256	3.009946e+02
483.002083364948987	3.009966e+02
484.000154946090731	3.009993e+02
485.001249816296991	3.010025e+02
485.999230737996697	3.010064e+02
487.00024615858581	3.010105e+02
488.001234027089424	3.010145e+02
488.999135972829379	3.010181e+02
490.000107037485407	3.010214e+02
491.001090819159572	3.010242e+02
492.002101665974578	3.010265e+02
493.00008301340813	3.010282e+02
494.001188349803726	3.010292e+02
494.999284798957547	3.010297e+02
496.000521798226259	3.010297e+02
497.001832923759764	3.010292e+02
498.000146640750472	3.010285e+02
499.001605196865512	3.010276e+02
500.000061963698101	3.010268e+02
501.001655800322453	3.010261e+02
502.000234992100616	3.010258e+02
503.001937609868378	3.010259e+02
504.000610741995047	3.010264e+02
504.999319615887543	3.010274e+02
506.001131858100678	3.010288e+02
506.999897443339478	3.010305e+02
508.001760645684897	3.010324e+02
509.00057494393468	3.010344e+02
509.999413898640967	3.010364e+02
511.001351703648083	3.010384e+02
512.000243591651156	3.010404e+02
512.999166595937822	3.010422e+02
514.001198888276008	3.010438e+02
515.000197471901288	3.010450e+02
515.999240191230342	3.010459e+02
517.001404900109492	3.010463e+02
518.000546014341694	3.010462e+02
518.9997392945819	3.010457e+02
520.002060063838258	3.010448e+02
521.001358525883006	3.010436e+02
522.000709177407316	3.010421e+02
523.000105090532884	3.010405e+02
523.999529934207544	3.010390e+02
525.002084781041731	3.010378e+02
526.001622665853461	3.010369e+02
527.001171985616338	3.010364e+02
528.000721685101212	3.010366e+02
529.000262130536157	3.010372e+02
529.999796097172407	3.010383e+02
530.999318975361916	3.010400e+02
532.001899480313568	3.010422e+02
533.001399512774583	3.010450e+02
534.000900020699419	3.010481e+02
535.000404316961408	3.010514e+02
535.999921060856764	3.010546e+02
536.999458418444192	3.010575e+02
538.002103412542056	3.010600e+02
539.001714787084325	3.010620e+02
540.001366371732502	3.010636e+02
541.001061457090373	3.010646e+02
542.000809750296298	3.010652e+02
543.000609536481306	3.010653e+02
544.000457062784562	3.010652e+02
545.000356160035494	3.010648e+02
546.000305324828219	3.010643e+02
547.000296519477502	3.010637e+02
548.00032856348605	3.010631e+02
549.00039992437064	3.010625e+02
550.00050195823269	3.010620e+02
551.000628867013802	3.010617e+02
552.000778619984771	3.010615e+02
553.000945071355659	3.010616e+02
554.001124319738892	3.010620e+02
555.001316586008329	3.010625e+02
556.001519320644888	3.010633e+02
557.001731672484084	3.010642e+02
558.001954675918114	3.010652e+02
559.002190567552361	3.010662e+02
559.999362884992479	3.010673e+02
560.999630826612474	3.010684e+02
561.999920830554856	3.010693e+02
563.000235633839111	3.010701e+02
564.000576550278424	3.010706e+02
565.000944078801922	3.010709e+02
566.001337432372793	3.010709e+02
567.001755222184784	3.010708e+02
568.002196495543558	3.010705e+02
568.999580920182666	3.010702e+02
570.000062861669335	3.010698e+02
571.000563368208532	3.010695e+02
572.001080476734842	3.010692e+02
573.001612390215314	3.010690e+02
574.002157901395321	3.010689e+02
574.999637739490481	3.010690e+02
576.000208103055229	3.010691e+02
577.000790376419445	3.010694e+02
578.00138554894454	3.010698e+02
579.001995962862566	3.010704e+02
579.999544495687815	3.010709e+02
581.000190636220964	3.010716e+02
582.000857445269162	3.010722e+02
583.001547127940512	3.010729e+02
583.999183521675604	3.010736e+02
584.999926948589632	3.010742e+02
586.000700489218843	3.010748e+02
587.001506598911533	3.010753e+02
587.99926799382547	3.010757e+02
589.000145409217112	3.010761e+02
590.001061787678282	3.010764e+02
591.002019298079972	3.010767e+02
591.999939170705602	3.010769e+02
593.000983032244562	3.010770e+02
594.002072942547557	3.010770e+02
595.000129737546672	3.010770e+02
596.001316151765764	3.010770e+02
596.999472665188705	3.010769e+02
598.000761925122447	3.010767e+02
599.002104637616185	3.010765e+02
600.000419838153448	3.010763e+02
601.001870748756801	3.010760e+02
602.000295198039908	3.010758e+02
603.001856482751009	3.010756e+02
604.000391285519527	3.010754e+02
605.002064012870051	3.010753e+02
606.000709777146653	3.010752e+02
606.999409940374107	3.010752e+02
608.001245875481345	3.010752e+02
609.000049676068443	3.010753e+02
610.001977780122729	3.010755e+02
611.000845954300644	3.010759e+02
611.99973879132358	3.010763e+02
613.0017381606973	3.010768e+02
614.000676823116464	3.010774e+02
614.999639012873558	3.010781e+02
616.001711923290941	3.010790e+02
617.000734056203328	3.010797e+02
617.999790448542399	3.010805e+02
619.001965576661064	3.010813e+02
620.001094966328083	3.010819e+02
621.000264110250328	3.010825e+02
621.999473763055789	3.010830e+02
623.001807770423625	3.010835e+02
624.001097977880477	3.010840e+02
625.000428471307941	3.010846e+02
625.99979888765597	3.010851e+02
626.999206816023047	3.010857e+02
628.001734472853627	3.010863e+02
629.001210015546008	3.010871e+02
630.000717516821396	3.010881e+02
631.000256078500001	3.010892e+02
631.999825123270284	3.010904e+02
632.999426658020411	3.010916e+02
634.00214914754838	3.010928e+02
635.00182383606159	3.010940e+02
636.00153826904284	3.010951e+02
637.001295668469538	3.010963e+02
638.001098441052591	3.010974e+02
639.000949078242797	3.010985e+02
640.000852172062196	3.010994e+02
641.000811977679632	3.011002e+02
642.000826046606221	3.011009e+02
643.00088421093858	3.011015e+02
644.000987198982557	3.011020e+02
645.001135073950991	3.011024e+02
646.001327198662466	3.011028e+02
647.001564001378711	3.011031e+02
648.001846248315132	3.011035e+02
649.002175559720968	3.011038e+02
649.999466234982947	3.011040e+02
650.999894350096497	3.011043e+02
652.000373217148535	3.011046e+02
653.000902076524198	3.011048e+02
654.00147562295092	3.011050e+02
655.002088305455345	3.011052e+02
655.999648575967171	3.011054e+02
657.000332758057425	3.011055e+02
658.0010501714155	3.011056e+02
659.001800652544148	3.011056e+02
659.99949457924231	3.011055e+02
661.00031023942654	3.011054e+02
662.001159454296953	3.011052e+02
663.002044136727022	3.011050e+02
663.999875970023027	3.011047e+02
665.000834738074445	3.011044e+02
666.001832272214756	3.011040e+02
666.999780480688059	3.011035e+02
668.00086067640018	3.011029e+02
669.0019849067927	3.011022e+02
670.000066609870373	3.011013e+02
671.001289291633157	3.011002e+02
671.999475757621894	3.010991e+02
673.000807624938147	3.010977e+02
674.00218933117651	3.010961e+02
675.000530347012273	3.010943e+02
676.00201286504398	3.010923e+02
677.000455554626456	3.010901e+02
678.00203940307631	3.010878e+02
679.000578665894523	3.010855e+02
679.999162369956139	3.010831e+02
681.000880745148152	3.010807e+02
681.99954849522635	3.010783e+02
683.001348837939759	3.010761e+02
684.000098695633596	3.010739e+02
685.001982198614996	3.010717e+02
686.000816954055722	3.010695e+02
686.999697858463037	3.010674e+02
688.00171817598391	3.010652e+02
689.000696449352063	3.010629e+02
689.999727806012288	3.010605e+02
691.001907207350882	3.010580e+02
692.001049376099786	3.010554e+02
693.000249775258794	3.010527e+02
693.999509619646233	3.010499e+02
695.001924732240695	3.010471e+02
696.001309593331143	3.010442e+02
697.000760008039492	3.010408e+02
698.000278654198837	3.010373e+02
698.999867765049999	3.010339e+02
699.999528647373381	3.010306e+02
700.999261851223423	3.010273e+02
702.002166662328364	3.010240e+02
703.002048461605796	3.010206e+02
704.002016020040287	3.010170e+02
705.002067926577752	3.010134e+02
706.00220676286699	3.010097e+02
706.999339558774523	3.010060e+02
707.999660490636643	3.010023e+02
709.000074117678878	3.009987e+02
710.000580381524742	3.009950e+02
711.001179537292728	3.009914e+02
712.001873981621088	3.009877e+02
712.999567203269407	3.009840e+02
714.00045794582627	3.009803e+02
715.001450105897447	3.009766e+02
715.999448579511522	3.009729e+02
717.000655854154957	3.009692e+02
718.0019742138428	3.009656e+02
719.000305392174141	3.009620e+02
720.001852983587924	3.009584e+02
721.000416218402506	3.009548e+02
722.002200570993409	3.009512e+02
723.001008981241284	3.009476e+02
723.999950655311068	3.009439e+02
725.002133639869839	3.009401e+02
726.001353102790858	3.009362e+02
727.00071608947178	3.009324e+02
728.00022038558518	3.009287e+02
728.999871265919523	3.009252e+02
729.999674178006103	3.009215e+02
730.999624470423214	3.009177e+02
731.999723814716162	3.009139e+02
732.999981920546702	3.009105e+02
734.000399350975727	3.009072e+02
735.000982023089364	3.009034e+02
736.001751885511112	3.008992e+02
736.999619236443891	3.008949e+02
738.000802725583412	3.008906e+02
739.002187912777913	3.008865e+02
740.000664238488525	3.008826e+02
740.999335135875413	3.008788e+02
742.001306272409806	3.008752e+02
743.00035018367214	3.008718e+02
743.99957864434225	3.008687e+02
745.00209378730176	3.008660e+02
746.001656578055645	3.008635e+02
747.001380774958648	3.008612e+02
748.00126859852594	3.008592e+02
749.001303812227547	3.008575e+02
750.001478226125414	3.008561e+02
751.001804049645898	3.008551e+02
751.999170492685494	3.008545e+02
752.999809978551639	3.008535e+02
754.000617256708324	3.008519e+02
755.00160456231481	3.008502e+02
755.9996414509244	3.008488e+02
757.000951254417714	3.008475e+02
757.999294888358463	3.008464e+02
759.000917716026038	3.008457e+02
759.999566380384408	3.008452e+02
761.001471295675515	3.008445e+02
762.000398866962996	3.008440e+02
762.999480786557797	3.008436e+02
764.001828470308624	3.008431e+02
765.001191457607433	3.008424e+02
766.000702680357449	3.008419e+02
767.000354804227186	3.008416e+02
768.000129205270241	3.008412e+02
769.000031120643371	3.008408e+02
770.000070989382039	3.008406e+02
771.000232985301295	3.008405e+02
772.000507517313849	3.008401e+02
773.00091097560221	3.008398e+02
774.001447959901384	3.008397e+02
774.998969051475342	3.008395e+02
775.999733179126224	3.008391e+02
777.000628535097917	3.008391e+02
777.998511779941055	3.008391e+02
778.999625465291729	3.008389e+02
780.000852992181535	3.008386e+02
780.999067502251023	3.008388e+02
782.000501651750483	3.008391e+02
782.998890402950906	3.008392e+02
784.000510709332616	3.008395e+02
784.999095951145591	3.008403e+02
786.000885146906739	3.008410e+02
786.999626701129273	3.008416e+02
788.001601758150173	3.008425e+02
789.000530123687213	3.008437e+02
789.999530848230279	3.008447e+02
790.99862715721315	3.008456e+02
792.000951261299747	3.008469e+02
793.000211673519857	3.008483e+02
793.999551064803086	3.008493e+02
794.998993047389376	3.008504e+02
795.998539242270454	3.008517e+02
797.00121385970408	3.008526e+02
798.00083212691186	3.008532e+02
799.000522314330169	3.008542e+02
800.000250605756605	3.008550e+02
801.000017169912667	3.008554e+02
801.999842073571358	3.008557e+02
802.999706484609419	3.008564e+02
803.999582733291618	3.008568e+02
804.999482047756146	3.008568e+02
805.999415658781686	3.008571e+02
806.999351759117303	3.008576e+02
807.999274949151413	3.008579e+02
808.999208724711366	3.008578e+02
809.99914808867095	3.008580e+02
810.999056193766251	3.008585e+02
811.998932488494233	3.008586e+02
812.998803996338438	3.008585e+02
813.998654002002354	3.008587e+02
815.001579920991389	3.008592e+02
816.00133257523828	3.008592e+02
817.001074908216992	3.008590e+02
818.000771926080461	3.008594e+02
819.000393426636151	3.008599e+02
819.999981202322829	3.008597e+02
820.999550655257735	3.008596e+02
821.99903903299446	3.008602e+02
823.001566279714211	3.008605e+02
824.000924564271259	3.008605e+02
825.000221582081508	3.008618e+02
825.999382328954994	3.008632e+02
827.001587692406019	3.008639e+02
828.000627895948355	3.008656e+02
828.999551449502519	3.008678e+02
830.001467451544841	3.008692e+02
831.00021531107916	3.008704e+02
831.998895971035608	3.008733e+02
833.00053533753794	3.008756e+02
833.998955071971295	3.008767e+02
835.00047699596098	3.008793e+02
835.998715522652674	3.008820e+02
836.999930671296283	3.008831e+02
838.001123477570104	3.008844e+02
838.999081881752318	3.008869e+02
839.999970080385197	3.008883e+02
841.000794857779169	3.008887e+02
842.001560905365864	3.008908e+02
842.999001408825166	3.008925e+02
843.999452529910513	3.008928e+02
844.999872326116702	3.008944e+02
846.00012386627759	3.008962e+02
847.000222763155534	3.008969e+02
848.000292433634058	3.008980e+02
849.000242785677756	3.009000e+02
850.00002896157423	3.009016e+02
850.999761643604757	3.009028e+02
851.999393702273892	3.009046e+02
852.998859638489989	3.009069e+02
854.001360649677281	3.009086e+02
855.000657095778593	3.009107e+02
855.999813643532775	3.009132e+02
856.998873063266615	3.009152e+02
858.000986364875075	3.009172e+02
858.999868720381755	3.009191e+02
859.998649532608965	3.009207e+02
861.000471721768236	3.009223e+02
861.999066316743551	3.009242e+02
863.00067494956329	3.009261e+02
863.999087793853846	3.009282e+02
865.000544472149613	3.009305e+02
865.998803714020937	3.009329e+02
867.000122603809928	3.009351e+02
868.001384262134707	3.009373e+02
868.999472388112508	3.009392e+02
870.000643261292907	3.009407e+02
870.998667684868224	3.009419e+02
871.999782446837344	3.009428e+02
873.000874958462532	3.009435e+02
873.998827776105145	3.009441e+02
874.999872922336863	3.009447e+02
876.000892789683121	3.009454e+02
876.998770256755165	3.009460e+02
877.999739486612611	3.009468e+02
879.000683825170086	3.009476e+02
880.001608363271998	3.009485e+02
880.999396520939513	3.009494e+02
882.000287412664647	3.009505e+02
883.001169270520791	3.009516e+02
883.998928084996123	3.009527e+02
884.999805708670237	3.009537e+02
886.000690875077112	3.009546e+02
887.001587333905491	3.009552e+02
887.999378046442303	3.009555e+02
889.000298849841215	3.009555e+02
890.001227169192589	3.009552e+02
890.999038491454712	3.009548e+02
891.999963323031352	3.009543e+02
893.000877356106457	3.009537e+02
893.998656425749232	3.009530e+02
894.999532193965592	3.009523e+02
896.00038300383892	3.009515e+02
897.001206450445807	3.009508e+02
897.998883302916397	3.009501e+02
898.999649348573598	3.009495e+02
900.000386891797802	3.009488e+02
901.001097298132891	3.009481e+02
901.998664901937559	3.009475e+02
902.999325858317889	3.009468e+02
903.999963408500321	3.009461e+02
905.00057879198755	3.009453e+02
906.001172663939997	3.009445e+02
906.998627661731803	3.009437e+02
907.999177637872663	3.009428e+02
908.999704328773987	3.009420e+02
910.000205979892371	3.009412e+02
911.000680661403294	3.009405e+02
912.001126076367655	3.009399e+02
913.0015389069398	3.009394e+02
913.998800052091042	3.009391e+02