# Region type : patch node2U_0_Inlet_0
#   Faces  : 148
#   Area   : 1.734668e-02
#        Time	areaAverage(T)
     0.999427	2.971500e+02
      2.00049	2.971500e+02
      3.00031	2.971500e+02
      3.99974	2.971500e+02
     4.999852	2.971500e+02
     6.001051	2.971500e+02
     7.000531	2.971500e+02
     8.000508	2.971500e+02
     9.000207	2.971499e+02
   10.0013794	2.971498e+02
   11.0007486	2.971498e+02
   12.0009612	2.971498e+02
   13.0012826	2.971497e+02
   14.0004431	2.971497e+02
 15.000919704	2.971497e+02
 16.001134102	2.971497e+02
 17.000964066	2.971498e+02
 18.001437332	2.971502e+02
 19.000199323	2.971513e+02
20.00002609566	2.971531e+02
21.0005538983	2.971556e+02
22.0001516083	2.971586e+02
23.00171546342	2.971622e+02
24.00158629973	2.971661e+02
24.9992923468791	2.971705e+02
26.0007408332901	2.971752e+02
27.000127321636	2.971801e+02
28.0005920788103	2.971852e+02
29.0017240917936	2.971903e+02
29.9997920938323759	2.971952e+02
31.0002175478398492	2.972000e+02
31.9996891168724211	2.972045e+02
33.0014876982192291	2.972086e+02
34.0001772822966544	2.972123e+02
34.9994365335516946	2.972159e+02
35.9997900444985959	2.972197e+02
37.0015242626866723	2.972240e+02
38.0015591189283697	2.972292e+02
38.9994632840672892	2.972350e+02
40.0007574456951929	2.972414e+02
41.0021224612753414	2.972484e+02
42.0002872525634814	2.972554e+02
43.0012566304121364	2.972624e+02
44.0020467575723373	2.972692e+02
44.9999474219365112	2.972759e+02
46.0013565934288735	2.972830e+02
47.0003167083469933	2.972908e+02
47.9999449913441012	2.972995e+02
49.0004299422109781	2.973093e+02
50.0018024649949737	2.973202e+02
51.0009823404558276	2.973319e+02
52.0009844877071998	2.973444e+02
53.0017643910810605	2.973575e+02
54.0002351206742404	2.973709e+02
54.9993848868174098	2.973845e+02
56.0021814734975152	2.973982e+02
56.9993512698789999	2.974117e+02
57.9999264458105159	2.974253e+02
59.0007923745438418	2.974389e+02
60.0019425234990109	2.974525e+02
61.0003528657921592	2.974662e+02
61.9992021823811967	2.974801e+02
63.0016965212632414	2.974945e+02
64.0018160389436872	2.975093e+02
64.9996150087740006	2.975247e+02
66.0012484215040303	2.975408e+02
67.0005232908566057	2.975576e+02
68.0003944877985589	2.975751e+02
69.0007533914107256	2.975932e+02
70.0015603219173812	2.976117e+02
70.9997684691784627	2.976306e+02
72.0016025253438841	2.976496e+02
73.0009653857906784	2.976683e+02
74.0009923556114444	2.976864e+02
75.0017195732837507	2.977041e+02
75.9999581087556066	2.977212e+02
77.0017104911463264	2.977379e+02
78.0005896543658253	2.977544e+02
78.9993985451516778	2.977708e+02
80.0010209520131355	2.977872e+02
80.9991269425436258	2.978034e+02
81.99974614684497	2.978196e+02
82.9997173174550653	2.978358e+02
84.0020941085013391	2.978524e+02
85.0006823668008735	2.978690e+02
86.0016281094392525	2.978859e+02
87.001834392442106	2.979030e+02
88.0012234801301929	2.979201e+02
88.9998675660702361	2.979371e+02
90.0008787025826535	2.979540e+02
91.0012554686999948	2.979707e+02
92.0011025357617598	2.979872e+02
93.000402258883355	2.980036e+02
93.999363258351579	2.980199e+02
95.0011600540610175	2.980360e+02
95.9997851463064222	2.980521e+02
97.0014259130476262	2.980682e+02
97.999941160804994	2.980838e+02
99.0014269928212656	2.980992e+02
99.9997536230513759	2.981141e+02
101.001031993007544	2.981284e+02
102.002273183616225	2.981420e+02
103.00030896487965	2.981551e+02
104.001240166939084	2.981677e+02
105.001994492542238	2.981797e+02
106.002493253645454	2.981914e+02
106.999679236622228	2.982028e+02
108.00266338555538	2.982140e+02
109.002112539327754	2.982251e+02
110.001000540579781	2.982362e+02
111.002408319914792	2.982473e+02
112.000128955767693	2.982584e+02
113.000219367322458	2.982696e+02
114.00252857400389	2.982811e+02
115.000960042107437	2.982927e+02
116.001504451501489	2.983047e+02
117.001088593146392	2.983171e+02
118.002638565734458	2.983301e+02
118.999993107898078	2.983436e+02
120.002185069780396	2.983579e+02
121.000078758953904	2.983727e+02
122.002653422413488	2.983881e+02
123.000754340607472	2.984038e+02
124.000249782474413	2.984200e+02
125.001208079555653	2.984365e+02
126.000763042848732	2.984535e+02
127.002101925546427	2.984710e+02
128.002452714997276	2.984893e+02
129.002099405373343	2.985080e+02
130.001295117298724	2.985264e+02
131.000335333749604	2.985445e+02
132.002542878069534	2.985623e+02
133.002328883822429	2.985794e+02
134.000075407824681	2.985955e+02
135.002080006486324	2.986105e+02
136.002658325402734	2.986240e+02
137.002219736449121	2.986356e+02
138.001156890232608	2.986454e+02
139.002494820356389	2.986532e+02
139.999771603676663	2.986586e+02
141.002127671732893	2.986619e+02
142.000326828377013	2.986634e+02
143.000354093607029	2.986632e+02
144.002607726763785	2.986616e+02
145.0007989384643	2.986591e+02
146.001058924252675	2.986560e+02
147.000383868891788	2.986527e+02
148.001677150526746	2.986492e+02
149.001583692929302	2.986458e+02
149.999803572063087	2.986426e+02
151.002157085829225	2.986396e+02
152.002368954412987	2.986369e+02
153.000419600010275	2.986344e+02
154.002498633515074	2.986320e+02
155.002367165596809	2.986296e+02
155.999961652498769	2.986271e+02
157.001484117626262	2.986246e+02
158.000771297344329	2.986221e+02
159.001061283777062	2.986196e+02
160.002464068186157	2.986172e+02
161.001787296918621	2.986149e+02
162.001967396205629	2.986128e+02
162.99987013600321	2.986110e+02
164.00169494871875	2.986094e+02
165.001225376364033	2.986082e+02
166.001529530404497	2.986072e+02
167.002578845905987	2.986067e+02
168.001176238471515	2.986064e+02
169.000257904581105	2.986064e+02
170.002691244404929	2.986066e+02
171.001931665802317	2.986068e+02
172.000683988546285	2.986065e+02
173.001764767570933	2.986054e+02
174.001790581428764	2.986032e+02
175.000677962106806	2.985995e+02
176.001649220067776	2.985940e+02
177.001949240672559	2.985862e+02
178.002122222696244	2.985762e+02
179.002687168357028	2.985640e+02
180.000851221809285	2.985497e+02
180.999717822446172	2.985333e+02
182.002107335839327	2.985143e+02
183.001541721738874	2.984921e+02
184.00118027588951	2.984657e+02
185.001003280914091	2.984338e+02
186.000682123100347	2.983955e+02
187.002663329054656	2.983503e+02
188.000129186769328	2.982983e+02
189.002449520229902	2.982400e+02
190.000940841888308	2.981773e+02
191.002657389520721	2.981116e+02
192.00193207052601	2.980451e+02
193.002067741240126	2.979787e+02
194.000021655254614	2.979111e+02
195.002180064267947	2.978392e+02
196.002286473872317	2.977606e+02
197.000051748967081	2.976733e+02
198.001304877255649	2.975758e+02
199.002178816809533	2.974702e+02
200.002215502925168	2.973627e+02
201.001498532132615	2.972636e+02
201.999694163551595	2.971862e+02
203.001846437787179	2.971410e+02
204.000260420414349	2.971311e+02
205.00076131728639	2.971488e+02
206.002090419317909	2.971879e+02
207.000933874151769	2.972388e+02
208.002051103417983	2.972956e+02
208.999656559112651	2.973597e+02
210.002554894086018	2.974235e+02
211.002667236961031	2.974743e+02
212.001596726417318	2.975111e+02
213.001608092022508	2.975430e+02
214.002622446640459	2.975753e+02
215.001874005837209	2.976034e+02
215.999728612705354	2.976239e+02
216.999660290062565	2.976371e+02
218.001954924164266	2.976416e+02
219.000511816629086	2.976373e+02
220.001826431655815	2.976261e+02
221.000639544984523	2.976117e+02
222.002502294171933	2.975944e+02
223.000913212408875	2.975730e+02
224.002046212566881	2.975478e+02
225.003156607808734	2.975151e+02
226.001390350997411	2.974672e+02
227.002497212841774	2.973984e+02
228.002739898910363	2.973096e+02
229.001536327455568	2.972028e+02
230.001647404054182	2.970882e+02
231.00330061146002	2.969741e+02
232.000523516120211	2.968634e+02
233.002842430776326	2.967606e+02
234.001494645122733	2.966726e+02
235.002785069853047	2.965969e+02
236.000926294089766	2.965308e+02
237.002404068492893	2.964740e+02
238.00113538662697	2.964262e+02
239.003268786141433	2.963856e+02
240.002837271213338	2.963554e+02
241.002924640601435	2.963382e+02
242.000538849728684	2.963315e+02
243.001804112537513	2.963318e+02
244.000640700406763	2.963386e+02
245.003319865708534	2.963515e+02
246.000707285940621	2.963674e+02
247.002007858199192	2.963824e+02
248.001056509176266	2.963966e+02
249.000979686864213	2.964098e+02
250.001763504070198	2.964193e+02
251.003303069669386	2.964254e+02
252.002504112295213	2.964323e+02
253.002425917797012	2.964415e+02
254.00272094465015	2.964498e+02
255.000360008183009	2.964570e+02
256.001595315007876	2.964665e+02
257.003362294698888	2.964802e+02
258.00255842102257	2.964964e+02
259.002152677035099	2.965116e+02
260.001981664416917	2.965250e+02
261.001813615033029	2.965398e+02
262.00140485254326	2.965592e+02
263.000594512311977	2.965816e+02
264.002385110868943	2.966009e+02
265.000443256167102	2.966156e+02
266.00098100543147	2.966290e+02
267.000967536314135	2.966373e+02
268.003276483198704	2.966301e+02
269.001523373274665	2.966069e+02
270.001725671010206	2.965723e+02
271.000481539417819	2.965220e+02
272.000714420740564	2.964520e+02
273.00292130020199	2.963689e+02
274.000742213383489	2.962801e+02
275.003225097653171	2.961930e+02
276.002032194746505	2.961133e+02
277.000645892159866	2.960445e+02
278.001942131295436	2.959834e+02
279.002858147299435	2.959290e+02
280.000465239377263	2.958862e+02
281.00097370133733	2.958536e+02
282.001341653260511	2.958275e+02
283.001642410801367	2.958075e+02
284.002016096109742	2.957954e+02
285.002594573110798	2.957883e+02
286.000496967216804	2.957833e+02
287.002085942394046	2.957824e+02
288.001482882226242	2.957851e+02
289.001835081267131	2.957894e+02
290.003171985280858	2.957958e+02
291.002445487420459	2.958048e+02
292.00266059645827	2.958125e+02
293.000613069468443	2.958177e+02
294.002349181339184	2.958229e+02
295.00168572860008	2.958282e+02
296.001605090646819	2.958310e+02
297.002037684732386	2.958319e+02
298.002982875965245	2.958333e+02
299.001348785551954	2.958349e+02
300.003249842926266	2.958374e+02
301.002466047054213	2.958426e+02
302.00202327849081	2.958508e+02
303.001852912322136	2.958610e+02
304.001950072599357	2.958734e+02
305.002289029862141	2.958889e+02
306.002804463364726	2.959065e+02
307.000339936166938	2.959246e+02
308.00112525275722	2.959423e+02
309.002161798808231	2.959587e+02
310.000299732926749	2.959726e+02
311.001753903974702	2.959835e+02
312.003228476479023	2.959921e+02
313.001570746664754	2.959987e+02
314.002891930573128	2.960036e+02
315.001098790657693	2.960066e+02
316.002212737646175	2.960078e+02
317.002753693123339	2.960057e+02
318.002741051715759	2.959989e+02
319.002227453965133	2.959867e+02
320.000977275220748	2.959697e+02
321.001929756773393	2.959489e+02
322.002125388221941	2.959255e+02
323.001535981613699	2.958995e+02
324.003041981572039	2.958722e+02
325.000374037859729	2.958412e+02
326.002912654348165	2.958075e+02
327.001586614448399	2.957759e+02
328.002512909745406	2.957465e+02
329.002543076401537	2.957184e+02
330.001749801562255	2.956934e+02
331.003321449891018	2.956712e+02
332.001214450012128	2.956491e+02
333.001643036346195	2.956266e+02
334.001697745459865	2.956062e+02
335.001516663824475	2.955872e+02
336.001181848031365	2.955683e+02
337.000752428457247	2.955508e+02
338.000308954575644	2.955358e+02
339.002955696242054	2.955215e+02
340.002659874426115	2.955076e+02
341.002600634695796	2.954950e+02
342.002938705057034	2.954840e+02
343.00077039028929	2.954763e+02
344.002322513747629	2.954730e+02
345.001592396976321	2.954745e+02
346.001698609735854	2.954795e+02
347.002663850727458	2.954873e+02
348.001500187671638	2.954980e+02
349.001388311793335	2.955110e+02
350.002414947083139	2.955259e+02
351.001524849529289	2.955430e+02
352.001809729970944	2.955622e+02
353.003257770451626	2.955836e+02
354.002679028832802	2.956066e+02
355.002987136006652	2.956308e+02
356.000911663448676	2.956546e+02
357.002428780017908	2.956752e+02
358.001143590770198	2.956916e+02
359.003187156254512	2.957066e+02
360.002328007981532	2.957222e+02
361.001683939638156	2.957379e+02
362.001359795507994	2.957539e+02
363.001507924815201	2.957692e+02
364.002174605211678	2.957826e+02
365.003082904724977	2.957934e+02
366.000971151079284	2.958039e+02
367.002024801993684	2.958152e+02
368.003029631648076	2.958258e+02
369.000706243231605	2.958351e+02
370.000978286578629	2.958431e+02
371.000341037977933	2.958472e+02
372.001639388103968	2.958446e+02
373.001936067328529	2.958346e+02
374.001098067899704	2.958176e+02
375.001995770755968	2.957939e+02
376.001888708956301	2.957654e+02
377.000697192593861	2.957329e+02
378.000866014206679	2.956934e+02
379.002752522726666	2.956483e+02
380.000575798720831	2.956044e+02
381.003082793718704	2.955621e+02
382.001184982359462	2.955217e+02
383.001246857416106	2.954865e+02
384.000394613058518	2.954573e+02
385.001759695812154	2.954302e+02
386.00240715265619	2.954045e+02
387.002475787051594	2.953821e+02
388.002127551349872	2.953636e+02
389.001458400598608	2.953481e+02
390.000565905005942	2.953349e+02
391.002619073859478	2.953225e+02
392.001663165008722	2.953100e+02
393.000807787559211	2.952980e+02
394.003205212637624	2.952877e+02
395.002903667881753	2.952800e+02
396.003070787040201	2.952741e+02
397.000788944054477	2.952714e+02
398.002261847880902	2.952718e+02
399.00152648097702	2.952762e+02
400.00177377167654	2.952844e+02
401.003123898012916	2.952959e+02
402.002521793520543	2.953092e+02
403.003004667831249	2.953230e+02
404.001507006324118	2.953364e+02
405.001142764898987	2.953488e+02
406.001969983514186	2.953603e+02
407.000910831287001	2.953720e+02
408.001049694494611	2.953840e+02
409.002337982931579	2.953971e+02
410.00156732501398	2.954121e+02
411.001678106944439	2.954287e+02
412.002483731703308	2.954459e+02
413.000720830192734	2.954616e+02
414.002430925371357	2.954738e+02
415.001324339358689	2.954831e+02
416.000503792273548	2.954930e+02
417.003249666369186	2.955053e+02
418.003350729972851	2.955181e+02
419.000725169714599	2.955294e+02
420.001102693622329	2.955397e+02
421.001189561263857	2.955492e+02
422.000968618332536	2.955565e+02
423.000465739541255	2.955605e+02
424.002481090010178	2.955617e+02
425.000454111860961	2.955606e+02
426.000377766803297	2.955560e+02
427.002167768366064	2.955453e+02
428.002663618545625	2.955271e+02
429.001856513206576	2.955030e+02
430.002984116604978	2.954742e+02
431.003192262110645	2.954405e+02
432.002096823281761	2.954017e+02
433.002905520767285	2.953617e+02
434.002743586778649	2.953263e+02
435.001598115112131	2.952946e+02
436.002450546028285	2.952654e+02
437.002274018610649	2.952434e+02
438.00123964214913	2.952307e+02
439.002581082353231	2.952212e+02
440.00034304553094	2.952099e+02
441.000711121537847	2.951978e+02
442.000791936376515	2.951877e+02
443.000763219221597	2.951801e+02
444.000772919074109	2.951727e+02
445.000884165880336	2.951632e+02
446.001029749664042	2.951522e+02
447.001151974869288	2.951425e+02
448.001241680816236	2.951341e+02
449.001268228530193	2.951236e+02
450.001167695159324	2.951090e+02
451.000963059848289	2.950923e+02
452.00077597965776	2.950761e+02
453.000738236156735	2.950619e+02
454.001027357326279	2.950507e+02
455.001852708968784	2.950431e+02
456.000362500163305	2.950417e+02
457.002802758368318	2.950493e+02
458.003196003892697	2.950651e+02
459.001589567564281	2.950855e+02
460.00098547648156	2.951069e+02
461.001317918729342	2.951279e+02
462.002551842731577	2.951474e+02
463.001592478121779	2.951631e+02
464.001455217795467	2.951748e+02
465.002111883247267	2.951829e+02
466.000468289098933	2.951896e+02
467.002609795840613	2.951952e+02
468.002310318274681	2.951988e+02
469.002560530585129	2.952001e+02
470.00329489304346	2.951993e+02
471.001355056605576	2.951972e+02
472.002861665149567	2.951952e+02
473.001561964299583	2.951942e+02
474.000477716033117	2.951936e+02
475.002577107132311	2.951933e+02
476.001650410400828	2.951936e+02
477.000645408034245	2.951946e+02
478.002513955180746	2.951960e+02
479.000964559904673	2.951970e+02
480.002102581843189	2.951969e+02
481.002679955656845	2.951941e+02
482.002597945267041	2.951886e+02
483.001691264800741	2.951802e+02
484.003071616693262	2.951685e+02
485.000336484884144	2.951540e+02
486.002534780768599	2.951376e+02
487.000679987856586	2.951200e+02
488.000926511784712	2.951000e+02
489.003195732206848	2.950768e+02
490.001479003611905	2.950530e+02
491.00212356148603	2.950326e+02
492.002132362470604	2.950174e+02
493.001500802693158	2.950042e+02
494.003297433729529	2.949900e+02
495.001457005393718	2.949749e+02
496.002120008971133	2.949586e+02
497.002342414996406	2.949412e+02
498.002252693521427	2.949236e+02
499.001989458526737	2.949071e+02
500.001708245066993	2.948940e+02
501.001555817569226	2.948850e+02
502.001690502452163	2.948803e+02
503.002238115199248	2.948793e+02
504.003247695359107	2.948807e+02
505.001707145733576	2.948851e+02
506.000673200985545	2.948928e+02
507.003155603728942	2.949010e+02
508.002982725622758	2.949076e+02
509.003130399994632	2.949129e+02
510.000491607245124	2.949169e+02
511.001135291948799	2.949194e+02
512.002000839052812	2.949194e+02
513.003093595891301	2.949170e+02
514.001375092693479	2.949135e+02
515.003006471415006	2.949096e+02
516.001902983398736	2.949058e+02
517.00113814397946	2.949025e+02
518.00075119453777	2.948999e+02
519.000777966113787	2.948975e+02
520.001248976453326	2.948955e+02
521.002200030192284	2.948946e+02
522.000579121023179	2.948953e+02
523.002490070326758	2.948972e+02
524.001753540568302	2.948999e+02
525.001361205130706	2.949028e+02
526.001237747212485	2.949054e+02
527.001309431480308	2.949076e+02
528.001493181315141	2.949099e+02
529.001715178055747	2.949122e+02
530.001904340192596	2.949143e+02
531.00196343448556	2.949152e+02
532.001793707690013	2.949142e+02
533.001327526602267	2.949108e+02
534.000515034029831	2.949043e+02
535.002367044145444	2.948948e+02
536.000711501576916	2.948842e+02
537.001622505152909	2.948735e+02
538.002013323162714	2.948612e+02
539.001869981411801	2.948467e+02
540.001187906447285	2.948312e+02
541.00301284645343	2.948161e+02
542.001225556390295	2.948018e+02
543.001939955503872	2.947879e+02
544.002138172190257	2.947736e+02
545.001861443912048	2.947584e+02
546.001165266284488	2.947426e+02
547.003214520297661	2.947274e+02
548.002042364261229	2.947142e+02
549.000807701796134	2.947043e+02
550.002690842886523	2.946981e+02
551.001696376509585	2.946960e+02
552.00095231417572	2.946969e+02
553.000495569591862	2.947005e+02
554.000326524515344	2.947070e+02
555.000417894257907	2.947139e+02
556.000707039192662	2.947191e+02
557.001146167858792	2.947224e+02
558.001670994217875	2.947237e+02
559.00222091731564	2.947221e+02
560.002760948818832	2.947175e+02
561.003267246031669	2.947105e+02
562.000653783958228	2.947020e+02
563.001006832258781	2.946933e+02
564.001261448977402	2.946847e+02
565.001402261682074	2.946760e+02
566.001416486073595	2.946670e+02
567.001306958242481	2.946579e+02
568.001088612961212	2.946485e+02
569.000803998330184	2.946394e+02
570.000513052084784	2.946312e+02
571.003333279293543	2.946248e+02
572.003240577886913	2.946196e+02
573.003341665373	2.946163e+02
574.000633761695781	2.946148e+02
575.001225046059403	2.946152e+02
576.002067007635901	2.946174e+02
577.003154038258003	2.946209e+02
578.001414355188672	2.946253e+02
579.002919750008573	2.946298e+02
580.001517164221468	2.946333e+02
581.00325516689486	2.946348e+02
582.001964060623095	2.946339e+02
583.00064847655517	2.946305e+02
584.002328360885599	2.946241e+02
585.000854217341839	2.946157e+02
586.002287276351922	2.946066e+02
587.000488461651798	2.945973e+02
588.001527679578999	2.945873e+02
589.002315298506687	2.945763e+02
590.002803789777317	2.945641e+02
591.002957846933668	2.945513e+02
592.002760268551469	2.945384e+02
593.002220829564408	2.945260e+02
594.00137104636849	2.945145e+02
595.003306020155378	2.945037e+02
596.002006081209515	2.944944e+02
597.000594318263893	2.944867e+02
598.002195250785689	2.944814e+02
599.00079741509694	2.944788e+02
600.002570943578235	2.944783e+02
601.00148420696587	2.944792e+02
602.000614201649228	2.944824e+02
603.003028406803764	2.944877e+02
604.002632172737776	2.944931e+02
605.002438767518356	2.944977e+02
606.002393362230237	2.945014e+02
607.002438086213033	2.945027e+02
608.002519571093444	2.945009e+02
609.002594908682113	2.944956e+02
610.002624012444812	2.944876e+02
611.00257420861567	2.944777e+02
612.002421365504119	2.944664e+02
613.00213679326589	2.944540e+02
614.00167615978603	2.944416e+02
615.000986403274055	2.944301e+02
616.003066520229481	2.944189e+02
617.001790236667148	2.944075e+02
618.00323238198996	2.943960e+02
619.001324432529145	2.943853e+02
620.002189394859329	2.943757e+02
621.002841920595415	2.943684e+02
622.000329405845036	2.943638e+02
623.000828114200885	2.943609e+02
624.001363126197475	2.943597e+02
625.001999212751571	2.943608e+02
626.002811455402934	2.943639e+02
627.000812807797047	2.943683e+02
628.002120941783573	2.943732e+02
629.000660379468286	2.943776e+02
630.002496732039731	2.943814e+02
631.001485728012653	2.943847e+02
632.000611254987575	2.943862e+02
633.002879142806592	2.943837e+02
634.00215452979478	2.943768e+02
635.00144985084296	2.943669e+02
636.000729316717752	2.943556e+02
637.002992101190671	2.943435e+02
638.002096774484016	2.943307e+02
639.001040900436237	2.943167e+02
640.002816029723363	2.943023e+02
641.001286643090339	2.942890e+02
642.002508342155238	2.942773e+02
643.000387183283465	2.942670e+02
644.001019476991473	2.942581e+02
645.00138119775545	2.942509e+02
646.001511582870648	2.942445e+02
647.001470443425319	2.942391e+02
648.001320644557836	2.942362e+02
649.001152611644329	2.942361e+02
650.001058184863382	2.942379e+02
651.001112879885341	2.942403e+02
652.001376941501121	2.942434e+02
653.001882713741111	2.942482e+02
654.002639028376279	2.942540e+02
655.00059653067774	2.942595e+02
656.001825748615715	2.942620e+02
657.003255943966565	2.942606e+02
658.001796689725779	2.942560e+02
659.000451662621686	2.942489e+02
660.002214183532942	2.942394e+02
661.000941201797673	2.942277e+02
662.002657544463204	2.942141e+02
663.001209661177768	2.941994e+02
664.002624651474321	2.941846e+02
665.000754650585918	2.941704e+02
666.001630353567066	2.941572e+02
667.00217972459177	2.941452e+02
668.002406226015978	2.941341e+02
669.00232372110429	2.941248e+02
670.001980157356343	2.941185e+02
671.001439456151957	2.941146e+02
672.000774660785623	2.941127e+02
673.003090923646823	2.941126e+02
674.002378215482736	2.941143e+02
675.001740249950558	2.941180e+02
676.001241613566549	2.941227e+02
677.000934726724608	2.941283e+02
678.000859463897541	2.941335e+02
679.001038105607904	2.941373e+02
680.00148267492159	2.941392e+02
681.002190454100742	2.941389e+02
682.003140702194059	2.941352e+02
683.001252286197769	2.941274e+02
684.002552392043071	2.941160e+02
685.000889837356112	2.941021e+02
686.002270350528647	2.940867e+02
687.000491698132919	2.940709e+02
688.001513345133162	2.940557e+02
689.002174269811803	2.940416e+02
690.002381651788937	2.940292e+02
691.002074014340792	2.940190e+02
692.001223957157663	2.940111e+02
693.002865130120426	2.940058e+02
694.000960627566087	2.940030e+02
695.001641077637828	2.940021e+02
696.001947278799548	2.940030e+02
697.001954438943358	2.940050e+02
698.001751859282081	2.940079e+02
699.001424990838018	2.940117e+02
700.001060126672769	2.940163e+02
701.000735808054174	2.940215e+02
702.00051589429836	2.940267e+02
703.000443078107537	2.940313e+02
704.000530691453378	2.940348e+02
705.000820281969936	2.940366e+02
706.001314351650421	2.940356e+02
707.001979354264677	2.940321e+02
708.002786229473259	2.940270e+02
709.000689110405574	2.940209e+02
710.001746107919075	2.940137e+02
711.002888678424597	2.940055e+02
712.001051259757901	2.939968e+02
713.002303063747149	2.939880e+02
714.000617153685766	2.939791e+02
715.002128360187953	2.939700e+02
716.000866102343707	2.939626e+02
717.003025773334343	2.939574e+02
718.002650824618286	2.939541e+02
719.00291538587669	2.939532e+02
720.000908626739829	2.939547e+02
721.002845785912655	2.939585e+02
722.002732400403715	2.939646e+02
723.000632937977798	2.939732e+02
724.002720299904695	2.939846e+02
725.002870152834248	2.939987e+02
726.001015277557372	2.940149e+02
727.003246004096241	2.940328e+02
728.000336739341947	2.940520e+02
729.001471837233339	2.940728e+02
730.000508654512942	2.940954e+02
731.000465613191523	2.941188e+02
732.001246264715974	2.941424e+02
733.002730962938244	2.941664e+02
734.00174534823293	2.941915e+02
735.001300929002468	2.942182e+02
736.001333152989332	2.942470e+02
737.001800958035346	2.942780e+02
738.002640424345486	2.943103e+02
739.000686758884513	2.943437e+02
740.002065286095785	2.943804e+02
741.000539876149787	2.944176e+02
742.002223058589834	2.944522e+02
743.000869168341183	2.944829e+02
744.002620836175197	2.945103e+02
745.001276077878742	2.945353e+02
746.002998977686957	2.945590e+02
747.001565474570953	2.945820e+02
748.00308865028444	2.946043e+02
749.001316310788638	2.946252e+02
750.002377542097747	2.946446e+02
751.003147564523601	2.946627e+02
752.000600879765443	2.946799e+02
753.000998043582513	2.946961e+02
754.001200174667588	2.947110e+02
755.001352950524165	2.947247e+02
756.001519259219776	2.947370e+02
757.00172760349335	2.947478e+02
758.002069777718816	2.947572e+02
759.002597394304416	2.947653e+02
760.00332598021032	2.947724e+02
761.001128165737668	2.947791e+02
762.00211738048813	2.947855e+02
763.003184695211871	2.947936e+02
764.00122567358676	2.948048e+02
765.002339892151554	2.948215e+02
766.003341425051531	2.948452e+02
767.00113330953161	2.948753e+02
768.001963746901197	2.949094e+02
769.002814879129232	2.949457e+02
770.000695695723266	2.949817e+02
771.001908310314093	2.950163e+02
772.000451383534937	2.950492e+02
773.002701190260268	2.950807e+02
774.002642122073894	2.951102e+02
775.000355659727234	2.951373e+02
776.002046585157245	2.951618e+02
777.001522955016981	2.951840e+02
778.00180349698212	2.952046e+02
779.002771984601395	2.952239e+02
780.001185110501751	2.952413e+02
781.00319743229079	2.952566e+02
782.002232213636148	2.952687e+02
783.001188886448972	2.952763e+02
784.003255546205992	2.952786e+02
785.002219793728614	2.952760e+02
786.001158568383971	2.952702e+02
787.003316917500229	2.952629e+02
788.002704594378315	2.952557e+02
789.00271448426497	2.952492e+02
790.000500667548181	2.952437e+02
791.002500263538991	2.952396e+02
792.002725685865471	2.952375e+02
793.00105867474349	2.952372e+02
794.003231696071794	2.952384e+02
795.00217995913124	2.952410e+02
796.00084706608186	2.952454e+02
797.002306898335519	2.952516e+02
798.002927238574671	2.952586e+02
799.002243828781616	2.952649e+02
800.003054315067516	2.952689e+02
801.002460660682232	2.952701e+02
802.000892962395938	2.952698e+02
803.001934847738767	2.952702e+02
804.003169944647311	2.952732e+02
805.002388934436453	2.952793e+02
806.003234727337826	2.952877e+02
807.002545599438463	2.952974e+02
808.003073222708849	2.953082e+02
809.000874104377317	2.953211e+02
810.001438329710822	2.953372e+02
811.000724192746475	2.953564e+02
812.001811350291405	2.953774e+02
813.001584911601981	2.953989e+02
814.002908985482577	2.954196e+02
815.002191484871446	2.954392e+02
816.002314479856636	2.954585e+02
817.00332833277696	2.954784e+02
818.002529831151037	2.954995e+02
819.001131780883725	2.955224e+02
820.000523859089185	2.955471e+02
821.001869303840294	2.955730e+02
822.002868431506272	2.955991e+02
823.000411490107126	2.956250e+02
824.0028538801796	2.956508e+02
825.002461246023586	2.956759e+02
826.001435673517904	2.957000e+02
827.002208727034031	2.957232e+02
828.001445324308861	2.957459e+02
829.002390080048144	2.957689e+02
830.002148734814114	2.957927e+02
831.000826182495416	2.958177e+02
832.001537229391602	2.958445e+02
833.001216019813	2.958740e+02
834.003190917930056	2.959071e+02
835.001989395335613	2.959444e+02
836.001743286915143	2.959860e+02
837.003373107716243	2.960311e+02
838.001002093433044	2.960776e+02
839.003459987333031	2.961250e+02
840.003430713911143	2.961731e+02
841.002418159342483	2.962212e+02
842.002211870593328	2.962669e+02
843.002180008750088	2.963072e+02
844.002438068635001	2.963398e+02
845.000793011167275	2.963645e+02
846.001309028500827	2.963830e+02
847.001631061249782	2.963975e+02
848.002215147460333	2.964100e+02
849.003267428542358	2.964223e+02
850.001817454202637	2.964359e+02
851.001087014212658	2.964518e+02
852.001262110688685	2.964703e+02
853.002413633490278	2.964909e+02
854.001328301809053	2.965120e+02
855.000761102739261	2.965316e+02
856.003344428627656	2.965481e+02
857.002309889664502	2.965608e+02
858.003216664270326	2.965705e+02
859.002624830092486	2.965783e+02
860.003605980601151	2.965854e+02
861.003401344148756	2.965925e+02
862.002563094513675	2.966004e+02
863.001530872641638	2.966101e+02
864.000700317348105	2.966223e+02
865.003313293546512	2.966374e+02
866.003356767872106	2.966552e+02
867.001023012084943	2.966751e+02
868.002636928759898	2.966965e+02
869.002242569296186	2.967185e+02
870.003085279427523	2.967403e+02
871.002109939725756	2.967613e+02
872.002160178441727	2.967817e+02
873.003025472852869	2.968017e+02
874.001489297933631	2.968218e+02
875.000624780896374	2.968425e+02
876.003448335902476	2.968642e+02
877.000696348402357	2.968873e+02
878.001714670755291	2.969121e+02
879.003434283216393	2.969384e+02
880.002683283840497	2.969662e+02
881.002490690940817	2.969953e+02
882.002786256044601	2.970257e+02
883.003502278200585	2.970573e+02
884.001434395993442	2.970899e+02
885.002711487432975	2.971234e+02
886.001032033246247	2.971573e+02
887.002544366582015	2.971915e+02
888.000944684132151	2.972257e+02
889.002396342678708	2.972601e+02
890.000618753914978	2.972943e+02
891.001783740825772	2.973284e+02
892.002770345493445	2.973622e+02
893.003675833668353	2.973956e+02
894.001387629840451	2.974284e+02
895.002060431334485	2.974607e+02
896.002626559788951	2.974924e+02
897.003166886834492	2.975234e+02
898.000697706219171	2.975535e+02
899.001597351107762	2.975829e+02
900.002855969314737	2.976113e+02
901.001417901727336	2.976385e+02
902.003387976814906	2.976645e+02
903.002316322866591	2.976890e+02
904.001083601684854	2.977120e+02
905.002646265454587	2.977338e+02
906.000680212167936	2.977543e+02
907.001284912299752	2.977738e+02
908.001389247912471	2.977926e+02
909.001035666576286	2.978111e+02
910.00327538986312	2.978297e+02
911.001875765191471	2.978484e+02
912.003106307705366	2.978675e+02
913.000856243580415	2.978869e+02