# Region type : patch node2U_7_Outlet_0
#   Faces  : 184
#   Area   : 1.734693e-02
#        Time	areaAverage(T)
     0.999427	3.001500e+02
      2.00049	3.001500e+02
      3.00031	3.001500e+02
      3.99974	3.001500e+02
     4.999837	3.001500e+02
      6.00101	3.001500e+02
     7.000448	3.001500e+02
     8.000372	3.001500e+02
     9.000012	3.001500e+02
   10.0011397	3.001491e+02
   11.0005124	3.001626e+02
   12.0006243	3.001759e+02
    13.001107	3.001890e+02
   13.9997402	3.002019e+02
  14.99964955	3.002148e+02
  15.99955708	3.002277e+02
  17.00134405	3.002406e+02
  18.00000337	3.002534e+02
  19.00006167	3.002662e+02
 20.001505108	3.002789e+02
 20.999254464	3.002915e+02
  22.00150266	3.003041e+02
 23.001714829	3.003164e+02
 23.999634984	3.003286e+02
25.00095516804	3.003408e+02
25.9996836352	3.003532e+02
26.99932842931	3.003656e+02
28.00029166142	3.003781e+02
28.99937441246	3.003907e+02
30.002134441893	3.004034e+02
31.002014765417	3.004160e+02
32.001552166551	3.004286e+02
33.000560257147	3.004412e+02
33.999249928093	3.004536e+02
35.00108530523362	3.004661e+02
36.00057592118466	3.004784e+02
37.00120630448001	3.004906e+02
38.00022932106895	3.005028e+02
39.00052258115672	3.005150e+02
40.0012943804983152	3.005273e+02
41.0019879837090926	3.005396e+02
41.9992708912271695	3.005520e+02
43.0021545135227328	3.005644e+02
44.0019391598090266	3.005768e+02
44.9992995861729526	3.005892e+02
46.0009844670853099	3.006017e+02
47.0014489491798813	3.006141e+02
48.0008801364990703	3.006265e+02
48.9995304912996801	3.006388e+02
50.0001794237682375	3.006512e+02
50.9993551299025256	3.006635e+02
51.9998205148969248	3.006757e+02
53.0015311001695864	3.006879e+02
54.0013696283965601	3.007000e+02
54.9993238877661597	3.007121e+02
56.0015339065886479	3.007243e+02
57.0018205760141825	3.007365e+02
58.000096433294182	3.007488e+02
58.9991359299691496	3.007611e+02
60.0016627635771727	3.007735e+02
61.0010778941215932	3.007860e+02
62.0000130700834902	3.007985e+02
63.0010986270090001	3.008112e+02
64.0009690790207202	3.008239e+02
64.9994918949116851	3.008367e+02
65.9998560646141783	3.008495e+02
66.9992477683962306	3.008624e+02
68.0009249354785794	3.008754e+02
69.0019475640447695	3.008885e+02
69.9993513960609874	3.009015e+02
70.9993591323269015	3.009147e+02
72.0020465187059102	3.009279e+02
73.0013581031466714	3.009411e+02
74.000423255190384	3.009543e+02
74.9993458644687365	3.009676e+02
76.0013508435945511	3.009809e+02
77.0005510755528491	3.009943e+02
78.0000113736252843	3.010076e+02
78.9992549610128236	3.010210e+02
80.0009720943383229	3.010344e+02
81.0020589541296232	3.010479e+02
81.9992454193614009	3.010613e+02
83.0014611672898184	3.010747e+02
83.9993628440124525	3.010881e+02
85.0020431376517678	3.011016e+02
86.000333987758637	3.011150e+02
87.0003695380874404	3.011285e+02
88.0020658759812022	3.011420e+02
88.9993795452335519	3.011554e+02
90.0015696379174557	3.011690e+02
90.9997903684166971	3.011825e+02
92.0003898830139377	3.011960e+02
93.0006194266289867	3.012095e+02
94.0007057145538596	3.012230e+02
95.0007997335581251	3.012364e+02
96.0009686444809773	3.012499e+02
97.0012373806239623	3.012633e+02
98.0016053172324462	3.012767e+02
99.0020344570527584	3.012901e+02
99.9994552294174497	3.013034e+02
100.999851234731452	3.013167e+02
102.000136850138333	3.013300e+02
103.000241500016131	3.013433e+02
104.000073061910427	3.013565e+02
104.999552930719901	3.013696e+02
106.001633206025147	3.013827e+02
107.000192996165325	3.013957e+02
108.001260471577879	3.014087e+02
109.001819915586253	3.014216e+02
110.001932009313407	3.014345e+02
111.001635624775176	3.014473e+02
112.000980310532839	3.014600e+02
113.000018915714335	3.014727e+02
114.001807672044521	3.014854e+02
115.000361508444968	3.014980e+02
116.001781982353393	3.015105e+02
117.000048097326257	3.015229e+02
118.00122264940498	3.015352e+02
118.999382617868164	3.015474e+02
120.000616562993542	3.015596e+02
121.002007225989203	3.015716e+02
122.000661640430124	3.015835e+02
122.999734831133267	3.015952e+02
123.99952262735836	3.016067e+02
125.000333848736219	3.016181e+02
125.999642959708595	3.016292e+02
127.000956414914896	3.016401e+02
128.001293686371213	3.016509e+02
129.000700621259568	3.016614e+02
130.002135701572797	3.016718e+02
130.999533849213833	3.016821e+02
131.999244240588723	3.016923e+02
133.001101245812436	3.017026e+02
134.0020971077968	3.017129e+02
135.002075643628388	3.017232e+02
136.000848975566782	3.017335e+02
137.001309026256649	3.017439e+02
138.000254544982795	3.017543e+02
139.000649575250975	3.017646e+02
139.999224934568531	3.017749e+02
141.002036637829093	3.017853e+02
141.999654446908238	3.017957e+02
143.001271960468813	3.018062e+02
144.000548532269903	3.018167e+02
145.00044839448563	3.018273e+02
146.000849050599697	3.018381e+02
147.001677167223932	3.018489e+02
147.99975047252525	3.018597e+02
149.001369451029944	3.018706e+02
150.000282434108982	3.018816e+02
150.999551328031998	3.018926e+02
151.999184896249147	3.019036e+02
152.999208185270845	3.019146e+02
153.999585696359787	3.019256e+02
155.00029833082661	3.019367e+02
156.001343237128225	3.019477e+02
156.999457705577299	3.019587e+02
158.000686168546764	3.019697e+02
159.001776087131674	3.019806e+02
159.999561059721657	3.019916e+02
161.000550527382018	3.020025e+02
162.001972559951867	3.020133e+02
163.000888609676053	3.020241e+02
164.000316687785954	3.020349e+02
165.000096140130211	3.020455e+02
166.000088612179667	3.020562e+02
167.000061340522421	3.020667e+02
167.999782828424799	3.020772e+02
168.999172341489157	3.020876e+02
170.001230534148533	3.020980e+02
170.999544804163264	3.021083e+02
172.00045496321485	3.021184e+02
173.000757901779707	3.021286e+02
174.000444045117518	3.021386e+02
174.999760596408947	3.021485e+02
176.002157779350711	3.021583e+02
177.001661582702695	3.021680e+02
178.001628294344187	3.021777e+02
178.999162606507298	3.021874e+02
180.000503473761029	3.021971e+02
180.999207866690625	3.022070e+02
182.001208593017452	3.022169e+02
183.000047488950003	3.022270e+02
184.001808139786192	3.022371e+02
184.999937399233318	3.022471e+02
186.000595667805044	3.022571e+02
187.000530755139152	3.022671e+02
187.999425330199387	3.022770e+02
189.000062339945401	3.022869e+02
189.999357851741564	3.022966e+02
191.001057008974414	3.023063e+02
191.999795576908383	3.023158e+02
193.002046035564831	3.023251e+02
194.001168212745995	3.023342e+02
195.000232847940111	3.023432e+02
195.99953641592225	3.023521e+02
196.999439237675062	3.023608e+02
197.999269378639354	3.023694e+02
199.000650340503455	3.023780e+02
200.000842022656059	3.023866e+02
201.00119110761409	3.023951e+02
202.001134602567248	3.024037e+02
202.999417775043128	3.024122e+02
204.000827370954454	3.024208e+02
205.000559713225243	3.024293e+02
206.000502514791634	3.024377e+02
207.00011763453864	3.024460e+02
207.999195525308778	3.024542e+02
209.000671541921633	3.024622e+02
210.001817201873507	3.024701e+02
211.0002458890323	3.024778e+02
211.999364130299796	3.024853e+02
213.001839980993253	3.024926e+02
214.000870215088923	3.024996e+02
215.002023773923156	3.025065e+02
216.001504856122665	3.025131e+02
217.002189670235424	3.025195e+02
218.001143521538211	3.025257e+02
219.001212277794565	3.025318e+02
219.999323567592427	3.025377e+02
221.002031393932299	3.025436e+02
222.000217558785977	3.025493e+02
222.99997324448853	3.025551e+02
224.001867206834618	3.025608e+02
225.000375206176443	3.025665e+02
226.00200082573221	3.025723e+02
227.000972114187221	3.025781e+02
228.000539892764351	3.025839e+02
229.000893584517286	3.025897e+02
229.999159920018428	3.025954e+02
231.001639840260879	3.026012e+02
231.999283063040082	3.026069e+02
233.00130211069677	3.026126e+02
234.001698960598503	3.026183e+02
235.000597990278322	3.026239e+02
236.001193587127887	3.026295e+02
237.000556169397072	3.026351e+02
238.001863471893813	3.026408e+02
239.002111919382003	3.026464e+02
240.001418570662111	3.026521e+02
240.999928434963607	3.026577e+02
242.000753346005581	3.026635e+02
243.000790839895984	3.026693e+02
244.000120610590187	3.026751e+02
245.0016559814066	3.026809e+02
246.000482859716641	3.026868e+02
246.99990715638009	3.026927e+02
247.999403010268622	3.026987e+02
249.001563930534189	3.027047e+02
249.99991638000995	3.027107e+02
251.00124377511591	3.027167e+02
252.000612908785769	3.027227e+02
253.001586776589619	3.027286e+02
254.001036030762123	3.027345e+02
254.999975551401036	3.027403e+02
256.000901604547437	3.027461e+02
257.000429744924418	3.027518e+02
258.001671223638084	3.027574e+02
259.001589548794925	3.027630e+02
260.000266655218695	3.027686e+02
261.000969535167712	3.027742e+02
262.000494430921947	3.027797e+02
263.002051357954429	3.027853e+02
263.999663054152222	3.027909e+02
264.999816340629877	3.027966e+02
265.999646482167861	3.028022e+02
266.999122460407477	3.028079e+02
268.001488989346399	3.028137e+02
269.000493605175279	3.028195e+02
270.001990224823089	3.028253e+02
270.999337872084311	3.028310e+02
272.001339823267472	3.028367e+02
273.001474013986467	3.028424e+02
273.999720630411105	3.028479e+02
274.999301622459257	3.028534e+02
276.00038858779908	3.028588e+02
277.000037429810845	3.028642e+02
277.99913815271151	3.028695e+02
279.001896234752223	3.028748e+02
279.999861762659407	3.028801e+02
280.999488359605721	3.028853e+02
282.000390167863145	3.028906e+02
283.001987050804189	3.028959e+02
284.000403045574728	3.029012e+02
285.001459538132849	3.029065e+02
286.001911629869539	3.029117e+02
287.001710184502201	3.029170e+02
288.000877315806576	3.029221e+02
288.999535921458005	3.029273e+02
290.000849147452925	3.029324e+02
291.001784583192489	3.029375e+02
291.999470265078116	3.029425e+02
293.000350726228248	3.029475e+02
294.001453998386921	3.029525e+02
294.99966250983897	3.029574e+02
296.001136649546311	3.029624e+02
296.999687551871489	3.029673e+02
298.001247068601629	3.029722e+02
298.999548585051969	3.029771e+02
300.000750059626967	3.029819e+02
301.001680673730334	3.029867e+02
301.999163971664927	3.029914e+02
302.999367282612582	3.029961e+02
303.999165754537898	3.030007e+02
305.001521887055901	3.030053e+02
306.000375119051853	3.030098e+02
307.001951876416115	3.030142e+02
308.000142042528466	3.030187e+02
309.001212895246681	3.030231e+02
309.999178614301854	3.030274e+02
311.000144539620237	3.030318e+02
312.001033491892031	3.030362e+02
313.001930242594824	3.030406e+02
313.999795573081769	3.030449e+02
315.000737111554429	3.030493e+02
316.001795102997278	3.030537e+02
317.00001860641413	3.030581e+02
318.001569055336915	3.030625e+02
319.000370431756608	3.030669e+02
319.999538897728996	3.030712e+02
321.002128177021007	3.030756e+02
322.001976849831294	3.030800e+02
323.002194787671499	3.030844e+02
323.999791101614449	3.030888e+02
325.000926405668565	3.030931e+02
325.999464392117318	3.030975e+02
327.001583740419449	3.031020e+02
328.001120124628414	3.031064e+02
329.001056924662748	3.031108e+02
330.001316807607054	3.031153e+02
331.001922953082271	3.031198e+02
331.999820607277798	3.031243e+02
333.001108668105701	3.031288e+02
333.999592450065279	3.031333e+02
335.001430012474145	3.031379e+02
336.000445902539866	3.031424e+02
336.999658818477883	3.031470e+02
338.002156064041969	3.031516e+02
339.001851563835544	3.031562e+02
340.001899743984723	3.031608e+02
340.999156465230499	3.031654e+02
341.999853923984119	3.031700e+02
343.000704997008711	3.031747e+02
344.001376858938784	3.031793e+02
345.00203887706607	3.031840e+02
345.999955215504826	3.031887e+02
347.000522663162087	3.031934e+02
348.000200029152836	3.031981e+02
349.000522755694988	3.032028e+02
350.001253613143035	3.032075e+02
351.000624273237918	3.032122e+02
351.999435802063715	3.032169e+02
353.002196744729815	3.032217e+02
354.001070048515999	3.032263e+02
355.001641036799754	3.032310e+02
355.999599629701663	3.032356e+02
357.000540487227624	3.032402e+02
358.000075444862205	3.032448e+02
358.999302800154226	3.032493e+02
360.001709987803054	3.032539e+02
361.000074298292702	3.032584e+02
362.000859290272558	3.032629e+02
363.001622746756937	3.032674e+02
364.001832563596452	3.032718e+02
365.001535463384243	3.032763e+02
366.00131467837474	3.032807e+02
367.00110538924082	3.032851e+02
368.000736030787152	3.032895e+02
369.000275218586978	3.032939e+02
369.999824276884169	3.032983e+02
370.999426774194205	3.033027e+02
372.002080612393968	3.033070e+02
373.001588932385062	3.033114e+02
374.001081446833666	3.033157e+02
375.000626116571937	3.033201e+02
376.000218547876443	3.033244e+02
376.999910591726973	3.033287e+02
377.999797780145002	3.033330e+02
378.999906813743962	3.033373e+02
380.000244808336674	3.033416e+02
381.000865619572778	3.033458e+02
382.001806304484546	3.033501e+02
382.999946272056377	3.033543e+02
384.001355606036498	3.033586e+02
384.99985631053687	3.033628e+02
386.0015402976166	3.033670e+02
387.000162701931743	3.033712e+02
388.001801501548812	3.033755e+02
389.000300444038373	3.033796e+02
390.001742707954349	3.033838e+02
390.99990443699852	3.033880e+02
392.000936197689441	3.033922e+02
393.00177492471073	3.033963e+02
393.999328852185783	3.034005e+02
394.999780108992752	3.034046e+02
396.000134804692266	3.034088e+02
397.00042004616688	3.034129e+02
398.000667031307955	3.034171e+02
399.000931769728538	3.034213e+02
400.001227470614424	3.034255e+02
401.001544797640236	3.034296e+02
402.001902596511854	3.034338e+02
402.999246021227464	3.034380e+02
403.999704245461601	3.034422e+02
405.000213976000339	3.034464e+02
406.000785726507388	3.034506e+02
407.001408508531085	3.034547e+02
408.002071314539194	3.034589e+02
408.999708595374841	3.034630e+02
410.000459919667492	3.034672e+02
411.001252828558734	3.034713e+02
412.002098628850092	3.034755e+02
412.999937502784405	3.034796e+02
414.000908309496879	3.034838e+02
415.001942485681127	3.034879e+02
415.999966713914432	3.034920e+02
417.001110452812043	3.034961e+02
417.999223947442431	3.035002e+02
419.000449839982025	3.035044e+02
420.001714127287812	3.035085e+02
420.999943618431587	3.035126e+02
422.001290078822194	3.035167e+02
422.999615985253001	3.035208e+02
424.001060314288623	3.035249e+02
424.999478222599919	3.035290e+02
426.001017745420938	3.035331e+02
426.999530720086625	3.035372e+02
428.001152874177365	3.035413e+02
428.999734515582077	3.035454e+02
430.001408625449528	3.035494e+02
431.000010340225799	3.035535e+02
432.001667839199797	3.035576e+02
433.000221815074497	3.035616e+02
434.001804251808949	3.035657e+02
435.000261415516377	3.035697e+02
436.001731095603191	3.035737e+02
437.000062707295285	3.035778e+02
438.001391866866186	3.035818e+02
438.999570770102707	3.035858e+02
440.000737846380048	3.035898e+02
441.00182111589163	3.035939e+02
441.999771361342766	3.035979e+02
443.000763413799177	3.036019e+02
444.001696459830953	3.036059e+02
444.999500435886944	3.036099e+02
446.00032752414711	3.036139e+02
447.001117645498596	3.036179e+02
448.001883226712721	3.036219e+02
448.999571098762033	3.036258e+02
450.00033578121878	3.036298e+02
451.00111711588346	3.036338e+02
452.001919501336943	3.036377e+02
452.999672442533097	3.036416e+02
454.000509144188925	3.036456e+02
455.001349657630726	3.036495e+02
456.002184940512961	3.036534e+02
456.999938224470498	3.036573e+02
458.000744652436538	3.036612e+02
459.001531729330225	3.036650e+02
459.999229727689283	3.036689e+02
460.999980922561065	3.036727e+02
462.000721221335311	3.036766e+02
463.001457879234579	3.036804e+02
464.002198438059679	3.036843e+02
464.999883907378376	3.036881e+02
466.000675712563577	3.036919e+02
467.001515884230287	3.036957e+02
467.999330505639648	3.036995e+02
469.000266807748972	3.037034e+02
470.001261089356149	3.037072e+02
470.999245163364833	3.037110e+02
472.000360361590424	3.037148e+02
473.001534471459308	3.037186e+02
473.99969086704948	3.037224e+02
475.000964073942441	3.037261e+02
475.999201404603866	3.037299e+02
477.000533716233122	3.037337e+02
478.001873839315238	3.037374e+02
479.000134933457161	3.037411e+02
480.001446950719014	3.037449e+02
480.999654544415421	3.037486e+02
482.00089220139256	3.037523e+02
483.002083364948987	3.037560e+02
484.000154946090731	3.037596e+02
485.001249816296991	3.037633e+02
485.999230737996697	3.037670e+02
487.00024615858581	3.037707e+02
488.001234027089424	3.037743e+02
488.999135972829379	3.037780e+02
490.000107037485407	3.037817e+02
491.001090819159572	3.037853e+02
492.002101665974578	3.037890e+02
493.00008301340813	3.037926e+02
494.001188349803726	3.037963e+02
494.999284798957547	3.038000e+02
496.000521798226259	3.038036e+02
497.001832923759764	3.038073e+02
498.000146640750472	3.038109e+02
499.001605196865512	3.038146e+02
500.000061963698101	3.038182e+02
501.001655800322453	3.038218e+02
502.000234992100616	3.038254e+02
503.001937609868378	3.038291e+02
504.000610741995047	3.038327e+02
504.999319615887543	3.038363e+02
506.001131858100678	3.038399e+02
506.999897443339478	3.038434e+02
508.001760645684897	3.038470e+02
509.00057494393468	3.038506e+02
509.999413898640967	3.038542e+02
511.001351703648083	3.038578e+02
512.000243591651156	3.038613e+02
512.999166595937822	3.038649e+02
514.001198888276008	3.038685e+02
515.000197471901288	3.038720e+02
515.999240191230342	3.038756e+02
517.001404900109492	3.038792e+02
518.000546014341694	3.038827e+02
518.9997392945819	3.038863e+02
520.002060063838258	3.038898e+02
521.001358525883006	3.038934e+02
522.000709177407316	3.038969e+02
523.000105090532884	3.039005e+02
523.999529934207544	3.039040e+02
525.002084781041731	3.039075e+02
526.001622665853461	3.039111e+02
527.001171985616338	3.039146e+02
528.000721685101212	3.039181e+02
529.000262130536157	3.039216e+02
529.999796097172407	3.039251e+02
530.999318975361916	3.039285e+02
532.001899480313568	3.039320e+02
533.001399512774583	3.039355e+02
534.000900020699419	3.039390e+02
535.000404316961408	3.039424e+02
535.999921060856764	3.039459e+02
536.999458418444192	3.039493e+02
538.002103412542056	3.039528e+02
539.001714787084325	3.039563e+02
540.001366371732502	3.039597e+02
541.001061457090373	3.039632e+02
542.000809750296298	3.039666e+02
543.000609536481306	3.039700e+02
544.000457062784562	3.039735e+02
545.000356160035494	3.039769e+02
546.000305324828219	3.039803e+02
547.000296519477502	3.039837e+02
548.00032856348605	3.039872e+02
549.00039992437064	3.039906e+02
550.00050195823269	3.039940e+02
551.000628867013802	3.039973e+02
552.000778619984771	3.040007e+02
553.000945071355659	3.040041e+02
554.001124319738892	3.040075e+02
555.001316586008329	3.040108e+02
556.001519320644888	3.040142e+02
557.001731672484084	3.040175e+02
558.001954675918114	3.040209e+02
559.002190567552361	3.040242e+02
559.999362884992479	3.040275e+02
560.999630826612474	3.040308e+02
561.999920830554856	3.040342e+02
563.000235633839111	3.040375e+02
564.000576550278424	3.040408e+02
565.000944078801922	3.040441e+02
566.001337432372793	3.040474e+02
567.001755222184784	3.040507e+02
568.002196495543558	3.040540e+02
568.999580920182666	3.040572e+02
570.000062861669335	3.040605e+02
571.000563368208532	3.040638e+02
572.001080476734842	3.040670e+02
573.001612390215314	3.040703e+02
574.002157901395321	3.040735e+02
574.999637739490481	3.040768e+02
576.000208103055229	3.040800e+02
577.000790376419445	3.040832e+02
578.00138554894454	3.040864e+02
579.001995962862566	3.040896e+02
579.999544495687815	3.040928e+02
581.000190636220964	3.040960e+02
582.000857445269162	3.040992e+02
583.001547127940512	3.041024e+02
583.999183521675604	3.041056e+02
584.999926948589632	3.041087e+02
586.000700489218843	3.041119e+02
587.001506598911533	3.041150e+02
587.99926799382547	3.041182e+02
589.000145409217112	3.041213e+02
590.001061787678282	3.041245e+02
591.002019298079972	3.041276e+02
591.999939170705602	3.041307e+02
593.000983032244562	3.041338e+02
594.002072942547557	3.041370e+02
595.000129737546672	3.041400e+02
596.001316151765764	3.041432e+02
596.999472665188705	3.041462e+02
598.000761925122447	3.041493e+02
599.002104637616185	3.041524e+02
600.000419838153448	3.041555e+02
601.001870748756801	3.041585e+02
602.000295198039908	3.041616e+02
603.001856482751009	3.041647e+02
604.000391285519527	3.041677e+02
605.002064012870051	3.041707e+02
606.000709777146653	3.041738e+02
606.999409940374107	3.041768e+02
608.001245875481345	3.041798e+02
609.000049676068443	3.041828e+02
610.001977780122729	3.041859e+02
611.000845954300644	3.041889e+02
611.99973879132358	3.041919e+02
613.0017381606973	3.041949e+02
614.000676823116464	3.041978e+02
614.999639012873558	3.042008e+02
616.001711923290941	3.042038e+02
617.000734056203328	3.042068e+02
617.999790448542399	3.042098e+02
619.001965576661064	3.042128e+02
620.001094966328083	3.042157e+02
621.000264110250328	3.042187e+02
621.999473763055789	3.042217e+02
623.001807770423625	3.042246e+02
624.001097977880477	3.042276e+02
625.000428471307941	3.042305e+02
625.99979888765597	3.042335e+02
626.999206816023047	3.042364e+02
628.001734472853627	3.042394e+02
629.001210015546008	3.042423e+02
630.000717516821396	3.042453e+02
631.000256078500001	3.042482e+02
631.999825123270284	3.042511e+02
632.999426658020411	3.042541e+02
634.00214914754838	3.042570e+02
635.00182383606159	3.042599e+02
636.00153826904284	3.042628e+02
637.001295668469538	3.042657e+02
638.001098441052591	3.042686e+02
639.000949078242797	3.042715e+02
640.000852172062196	3.042744e+02
641.000811977679632	3.042773e+02
642.000826046606221	3.042802e+02
643.00088421093858	3.042830e+02
644.000987198982557	3.042859e+02
645.001135073950991	3.042888e+02
646.001327198662466	3.042916e+02
647.001564001378711	3.042945e+02
648.001846248315132	3.042973e+02
649.002175559720968	3.043002e+02
649.999466234982947	3.043030e+02
650.999894350096497	3.043059e+02
652.000373217148535	3.043087e+02
653.000902076524198	3.043115e+02
654.00147562295092	3.043143e+02
655.002088305455345	3.043171e+02
655.999648575967171	3.043199e+02
657.000332758057425	3.043227e+02
658.0010501714155	3.043255e+02
659.001800652544148	3.043283e+02
659.99949457924231	3.043310e+02
661.00031023942654	3.043338e+02
662.001159454296953	3.043366e+02
663.002044136727022	3.043393e+02
663.999875970023027	3.043421e+02
665.000834738074445	3.043448e+02
666.001832272214756	3.043475e+02
666.999780480688059	3.043503e+02
668.00086067640018	3.043530e+02
669.0019849067927	3.043557e+02
670.000066609870373	3.043584e+02
671.001289291633157	3.043611e+02
671.999475757621894	3.043638e+02
673.000807624938147	3.043665e+02
674.00218933117651	3.043691e+02
675.000530347012273	3.043718e+02
676.00201286504398	3.043745e+02
677.000455554626456	3.043771e+02
678.00203940307631	3.043798e+02
679.000578665894523	3.043824e+02
679.999162369956139	3.043850e+02
681.000880745148152	3.043876e+02
681.99954849522635	3.043902e+02
683.001348837939759	3.043928e+02
684.000098695633596	3.043954e+02
685.001982198614996	3.043980e+02
686.000816954055722	3.044006e+02
686.999697858463037	3.044031e+02
688.00171817598391	3.044057e+02
689.000696449352063	3.044082e+02
689.999727806012288	3.044107e+02
691.001907207350882	3.044133e+02
692.001049376099786	3.044158e+02
693.000249775258794	3.044183e+02
693.999509619646233	3.044208e+02
695.001924732240695	3.044233e+02
696.001309593331143	3.044257e+02
697.000760008039492	3.044282e+02
698.000278654198837	3.044307e+02
698.999867765049999	3.044331e+02
699.999528647373381	3.044356e+02
700.999261851223423	3.044380e+02
702.002166662328364	3.044404e+02
703.002048461605796	3.044428e+02
704.002016020040287	3.044452e+02
705.002067926577752	3.044476e+02
706.00220676286699	3.044500e+02
706.999339558774523	3.044524e+02
707.999660490636643	3.044548e+02
709.000074117678878	3.044571e+02
710.000580381524742	3.044595e+02
711.001179537292728	3.044618e+02
712.001873981621088	3.044641e+02
712.999567203269407	3.044665e+02
714.00045794582627	3.044688e+02
715.001450105897447	3.044711e+02
715.999448579511522	3.044734e+02
717.000655854154957	3.044757e+02
718.0019742138428	3.044780e+02
719.000305392174141	3.044802e+02
720.001852983587924	3.044825e+02
721.000416218402506	3.044847e+02
722.002200570993409	3.044870e+02
723.001008981241284	3.044892e+02
723.999950655311068	3.044914e+02
725.002133639869839	3.044937e+02
726.001353102790858	3.044959e+02
727.00071608947178	3.044981e+02
728.00022038558518	3.045003e+02
728.999871265919523	3.045025e+02
729.999674178006103	3.045047e+02
730.999624470423214	3.045069e+02
731.999723814716162	3.045090e+02
732.999981920546702	3.045112e+02
734.000399350975727	3.045133e+02
735.000982023089364	3.045155e+02
736.001751885511112	3.045176e+02
736.999619236443891	3.045198e+02
738.000802725583412	3.045219e+02
739.002187912777913	3.045240e+02
740.000664238488525	3.045261e+02
740.999335135875413	3.045282e+02
742.001306272409806	3.045303e+02
743.00035018367214	3.045324e+02
743.99957864434225	3.045345e+02
745.00209378730176	3.045366e+02
746.001656578055645	3.045387e+02
747.001380774958648	3.045407e+02
748.00126859852594	3.045428e+02
749.001303812227547	3.045449e+02
750.001478226125414	3.045469e+02
751.001804049645898	3.045490e+02
751.999170492685494	3.045510e+02
752.999809978551639	3.045531e+02
754.000617256708324	3.045551e+02
755.00160456231481	3.045571e+02
755.9996414509244	3.045591e+02
757.000951254417714	3.045612e+02
757.999294888358463	3.045632e+02
759.000917716026038	3.045652e+02
759.999566380384408	3.045672e+02
761.001471295675515	3.045692e+02
762.000398866962996	3.045713e+02
762.999480786557797	3.045733e+02
764.001828470308624	3.045753e+02
765.001191457607433	3.045773e+02
766.000702680357449	3.045793e+02
767.000354804227186	3.045813e+02
768.000129205270241	3.045833e+02
769.000031120643371	3.045852e+02
770.000070989382039	3.045872e+02
771.000232985301295	3.045892e+02
772.000507517313849	3.045912e+02
773.00091097560221	3.045929e+02
774.001447959901384	3.045949e+02
774.998969051475342	3.045968e+02
775.999733179126224	3.045988e+02
777.000628535097917	3.046007e+02
777.998511779941055	3.046027e+02
778.999625465291729	3.046046e+02
780.000852992181535	3.046066e+02
780.999067502251023	3.046085e+02
782.000501651750483	3.046104e+02
782.998890402950906	3.046123e+02
784.000510709332616	3.046142e+02
784.999095951145591	3.046162e+02
786.000885146906739	3.046181e+02
786.999626701129273	3.046200e+02
788.001601758150173	3.046219e+02
789.000530123687213	3.046237e+02
789.999530848230279	3.046256e+02
790.99862715721315	3.046275e+02
792.000951261299747	3.046294e+02
793.000211673519857	3.046313e+02
793.999551064803086	3.046332e+02
794.998993047389376	3.046350e+02
795.998539242270454	3.046369e+02
797.00121385970408	3.046388e+02
798.00083212691186	3.046406e+02
799.000522314330169	3.046425e+02
800.000250605756605	3.046443e+02
801.000017169912667	3.046462e+02
801.999842073571358	3.046480e+02
802.999706484609419	3.046498e+02
803.999582733291618	3.046517e+02
804.999482047756146	3.046535e+02
805.999415658781686	3.046553e+02
806.999351759117303	3.046571e+02
807.999274949151413	3.046589e+02
808.999208724711366	3.046608e+02
809.99914808867095	3.046625e+02
810.999056193766251	3.046643e+02
811.998932488494233	3.046661e+02
812.998803996338438	3.046679e+02
813.998654002002354	3.046697e+02
815.001579920991389	3.046714e+02
816.00133257523828	3.046732e+02
817.001074908216992	3.046749e+02
818.000771926080461	3.046767e+02
819.000393426636151	3.046784e+02
819.999981202322829	3.046801e+02
820.999550655257735	3.046818e+02
821.99903903299446	3.046836e+02
823.001566279714211	3.046853e+02
824.000924564271259	3.046870e+02
825.000221582081508	3.046886e+02
825.999382328954994	3.046903e+02
827.001587692406019	3.046920e+02
828.000627895948355	3.046936e+02
828.999551449502519	3.046953e+02
830.001467451544841	3.046970e+02
831.00021531107916	3.046986e+02
831.998895971035608	3.047002e+02
833.00053533753794	3.047019e+02
833.998955071971295	3.047035e+02
835.00047699596098	3.047051e+02
835.998715522652674	3.047067e+02
836.999930671296283	3.047083e+02
838.001123477570104	3.047099e+02
838.999081881752318	3.047115e+02
839.999970080385197	3.047131e+02
841.000794857779169	3.047147e+02
842.001560905365864	3.047162e+02
842.999001408825166	3.047178e+02
843.999452529910513	3.047194e+02
844.999872326116702	3.047209e+02
846.00012386627759	3.047225e+02
847.000222763155534	3.047240e+02
848.000292433634058	3.047255e+02
849.000242785677756	3.047271e+02
850.00002896157423	3.047286e+02
850.999761643604757	3.047301e+02
851.999393702273892	3.047316e+02
852.998859638489989	3.047331e+02
854.001360649677281	3.047346e+02
855.000657095778593	3.047361e+02
855.999813643532775	3.047376e+02
856.998873063266615	3.047390e+02
858.000986364875075	3.047405e+02
858.999868720381755	3.047420e+02
859.998649532608965	3.047434e+02
861.000471721768236	3.047449e+02
861.999066316743551	3.047463e+02
863.00067494956329	3.047477e+02
863.999087793853846	3.047492e+02
865.000544472149613	3.047506e+02
865.998803714020937	3.047520e+02
867.000122603809928	3.047534e+02
868.001384262134707	3.047548e+02
868.999472388112508	3.047562e+02
870.000643261292907	3.047576e+02
870.998667684868224	3.047590e+02
871.999782446837344	3.047603e+02
873.000874958462532	3.047617e+02
873.998827776105145	3.047631e+02
874.999872922336863	3.047644e+02
876.000892789683121	3.047658e+02
876.998770256755165	3.047671e+02
877.999739486612611	3.047684e+02
879.000683825170086	3.047698e+02
880.001608363271998	3.047711e+02
880.999396520939513	3.047724e+02
882.000287412664647	3.047737e+02
883.001169270520791	3.047750e+02
883.998928084996123	3.047763e+02
884.999805708670237	3.047776e+02
886.000690875077112	3.047789e+02
887.001587333905491	3.047802e+02
887.999378046442303	3.047814e+02
889.000298849841215	3.047827e+02
890.001227169192589	3.047839e+02
890.999038491454712	3.047852e+02
891.999963323031352	3.047864e+02
893.000877356106457	3.047877e+02
893.998656425749232	3.047889e+02
894.999532193965592	3.047901e+02
896.00038300383892	3.047913e+02
897.001206450445807	3.047925e+02
897.998883302916397	3.047937e+02
898.999649348573598	3.047949e+02
900.000386891797802	3.047961e+02
901.001097298132891	3.047973e+02
901.998664901937559	3.047984e+02
902.999325858317889	3.047996e+02
903.999963408500321	3.048008e+02
905.00057879198755	3.048019e+02
906.001172663939997	3.048030e+02
906.998627661731803	3.048042e+02
907.999177637872663	3.048053e+02
908.999704328773987	3.048064e+02
910.000205979892371	3.048075e+02
911.000680661403294	3.048086e+02
912.001126076367655	3.048097e+02
913.0015389069398	3.048107e+02
913.998800052091042	3.048118e+02