# Region type : patch node2U_2_Outlet_0
#   Faces  : 148
#   Area   : 1.734765e-02
#        Time	areaAverage(T)
     0.999427	3.001500e+02
      2.00049	3.001500e+02
      3.00031	3.001500e+02
      3.99974	3.001500e+02
     4.999837	3.001500e+02
      6.00101	3.001500e+02
     7.000448	3.001500e+02
     8.000372	3.001500e+02
     9.000012	3.001500e+02
   10.0011397	3.001499e+02
   11.0005125	3.001735e+02
   12.0006256	3.001970e+02
   13.0011117	3.002204e+02
   13.9997545	3.002436e+02
 14.999678163	3.002667e+02
 15.999607758	3.002897e+02
 17.001423079	3.003126e+02
 18.000125537	3.003354e+02
 19.000241824	3.003582e+02
20.0017637999	3.003810e+02
20.9996095701	3.004036e+02
22.0019702438	3.004262e+02
 22.999320956	3.004486e+02
24.0004117324	3.004711e+02
25.001912685444	3.004934e+02
26.000815381156	3.005156e+02
27.000616308207	3.005377e+02
28.001753186764	3.005598e+02
29.00103025218	3.005817e+02
30.00096884102414	3.006035e+02
31.0010466924629	3.006258e+02
32.00076191534071	3.006474e+02
32.99994752892779	3.006689e+02
34.00185910390489	3.006904e+02
35.00094148549404	3.007117e+02
36.0007323908276	3.007329e+02
37.00168518983952	3.007541e+02
38.00099208641546	3.007752e+02
39.00157851096972	3.007961e+02
39.9996303786337393	3.008170e+02
41.0004953412502999	3.008377e+02
42.0009070206368165	3.008584e+02
43.0008319248529602	3.008790e+02
44.0005488391913389	3.008995e+02
45.0006530563491651	3.009201e+02
46.0017181984809156	3.009407e+02
47.0009495583614481	3.009613e+02
48.0018396077909131	3.009820e+02
49.0015515004562801	3.010027e+02
49.9999329171132274	3.010234e+02
50.9997297372635359	3.010441e+02
52.0007723885163031	3.010648e+02
52.9999861900431952	3.010854e+02
54.0004187036915866	3.011061e+02
55.0020986480979488	3.011267e+02
56.0018978015979485	3.011472e+02
56.9997709032349675	3.011676e+02
58.0017761736346387	3.011881e+02
59.0015984460411929	3.012085e+02
60.0021521568440548	3.012288e+02
61.000098740020384	3.012491e+02
62.0012673557279967	3.012694e+02
63.0022013247344859	3.012896e+02
63.9994497110408744	3.013098e+02
65.002054107660129	3.013300e+02
66.0007129160335353	3.013502e+02
67.001732642028287	3.013703e+02
68.0022184161371825	3.013904e+02
69.0023282304698569	3.014105e+02
70.0020967323733316	3.014306e+02
71.0014626894989078	3.014507e+02
72.000347206961905	3.014707e+02
73.001814536130297	3.014908e+02
73.999803696464312	3.015107e+02
75.0005142580166506	3.015308e+02
76.0009472599216451	3.015508e+02
77.0010967364421219	3.015707e+02
78.0008778649198149	3.015907e+02
79.0002325173825	3.016106e+02
80.0023181581406391	3.016306e+02
81.0010950209574219	3.016504e+02
81.9997182112844456	3.016702e+02
83.0013300977933284	3.016900e+02
83.9999391470229	3.017097e+02
85.0018435010252347	3.017295e+02
86.0008606208824204	3.017491e+02
86.9999880338603901	3.017687e+02
88.0020037995171407	3.017883e+02
89.0004046785960838	3.018078e+02
90.0010837849391692	3.018273e+02
91.0008285090756743	3.018467e+02
91.9994646174541089	3.018661e+02
93.0000853875089604	3.018855e+02
93.9995910128285601	3.019049e+02
95.0012163098537314	3.019242e+02
96.0020133773239053	3.019436e+02
97.0020574698554583	3.019628e+02
98.0014642115947225	3.019821e+02
99.0003686226269366	3.020013e+02
100.001947089189784	3.020205e+02
101.000271179902313	3.020397e+02
102.001523406674536	3.020588e+02
102.99969570444479	3.020779e+02
104.000908865614974	3.020970e+02
105.002152263136153	3.021161e+02
106.000378067992287	3.021351e+02
107.00163414543087	3.021541e+02
107.999820550515125	3.021730e+02
109.000984406227602	3.021919e+02
110.002068239247023	3.022108e+02
111.00001858391191	3.022296e+02
112.000888836224746	3.022484e+02
113.001617997014293	3.022671e+02
114.002209263695818	3.022858e+02
114.99960718464024	3.023044e+02
115.999872131530168	3.023230e+02
116.999973228238687	3.023415e+02
117.999915759184802	3.023599e+02
118.999696297663988	3.023783e+02
120.002346978990104	3.023967e+02
121.001802203412097	3.024149e+02
122.001089430002338	3.024331e+02
123.000195781257958	3.024512e+02
124.002145808338966	3.024692e+02
125.00086390218344	3.024872e+02
126.002399932855283	3.025051e+02
127.000675423971757	3.025228e+02
128.001718892295969	3.025405e+02
129.002474220212093	3.025582e+02
129.999899023642627	3.025757e+02
131.000022883252541	3.025931e+02
131.99980357745423	3.026104e+02
133.002201975843775	3.026277e+02
134.00121011720671	3.026449e+02
134.999895059076891	3.026619e+02
136.001354881184824	3.026789e+02
136.999671981025131	3.026958e+02
138.001014733980639	3.027126e+02
138.999511912610359	3.027293e+02
140.001372693757475	3.027460e+02
141.000721369328062	3.027626e+02
142.000678826319387	3.027792e+02
143.001410269753791	3.027957e+02
144.000025124920398	3.028122e+02
144.999619595327431	3.028286e+02
146.0002268439452	3.028451e+02
147.001934284146188	3.028616e+02
148.00171385002426	3.028780e+02
148.999570758778503	3.028944e+02
150.001460268790225	3.029108e+02
151.001471625160036	3.029272e+02
151.999643271126928	3.029436e+02
153.002234693194737	3.029601e+02
154.000017083123623	3.029764e+02
155.002075368657557	3.029929e+02
156.002171319720389	3.030092e+02
157.000201221534894	3.030255e+02
158.002214270236891	3.030418e+02
159.002025935581884	3.030580e+02
159.999611888222489	3.030742e+02
161.001110797304506	3.030903e+02
162.000431518502523	3.031063e+02
163.000598996626394	3.031223e+02
164.001657526757469	3.031382e+02
165.000611927010681	3.031540e+02
166.000636570257399	3.031698e+02
167.001966936224989	3.031855e+02
168.001524024576383	3.032011e+02
168.999535062912372	3.032167e+02
170.002373244580212	3.032322e+02
171.000526233348893	3.032476e+02
171.999938935686771	3.032629e+02
173.000419891909644	3.032781e+02
174.001722928412619	3.032933e+02
175.000512625435874	3.033083e+02
175.999767070886492	3.033232e+02
176.99954079770464	3.033380e+02
178.000007481480537	3.033527e+02
179.001172133937928	3.033673e+02
179.999682450687942	3.033818e+02
181.001635694069051	3.033962e+02
182.000592152761328	3.034106e+02
182.999519896950915	3.034248e+02
184.00124781430452	3.034390e+02
185.002486385811778	3.034532e+02
186.000255045406107	3.034672e+02
187.001127013245792	3.034812e+02
188.002072581649884	3.034950e+02
188.999892205631966	3.035088e+02
190.000705973510435	3.035224e+02
191.001383975613464	3.035360e+02
192.002166445431158	3.035494e+02
193.000098668779714	3.035627e+02
194.001181195154828	3.035758e+02
195.001620137572985	3.035888e+02
196.001178650808271	3.036016e+02
197.000350796765275	3.036143e+02
197.999660542726929	3.036268e+02
199.002335025356558	3.036392e+02
200.001935586922144	3.036513e+02
201.001414943333913	3.036631e+02
202.000868928127431	3.036747e+02
202.999997842964206	3.036859e+02
204.0016310147914	3.036969e+02
205.002166413694084	3.037075e+02
206.001116309208413	3.037178e+02
207.001381956321211	3.037278e+02
207.9998943985035	3.037376e+02
208.999583940723255	3.037470e+02
209.99984336437123	3.037560e+02
211.000998253438354	3.037647e+02
212.000320780333084	3.037731e+02
213.000148791994746	3.037812e+02
214.000519730077229	3.037892e+02
215.000147433256899	3.037972e+02
216.001291672560797	3.038052e+02
217.001249723514121	3.038132e+02
218.002346265045077	3.038212e+02
219.001117517151101	3.038291e+02
220.000179332863723	3.038369e+02
221.001984233296611	3.038446e+02
222.000019298464537	3.038522e+02
223.000472483728515	3.038597e+02
224.000035929419795	3.038670e+02
225.001538814148404	3.038742e+02
226.002232348217717	3.038812e+02
227.002169872115275	3.038881e+02
228.000958699243625	3.038947e+02
229.001727466383443	3.039011e+02
230.001349947985972	3.039073e+02
230.99980440953388	3.039133e+02
232.000658677140137	3.039191e+02
233.000406829737074	3.039246e+02
234.001889288894915	3.039300e+02
234.999987857891028	3.039352e+02
236.000824748772231	3.039402e+02
237.00126402941325	3.039451e+02
238.001397825822721	3.039500e+02
239.001659752754847	3.039548e+02
240.002266841204374	3.039597e+02
241.000261468869382	3.039646e+02
242.001944879210811	3.039696e+02
243.001454555426477	3.039747e+02
244.001972006663124	3.039799e+02
245.000650011113038	3.039852e+02
246.000794019596583	3.039907e+02
246.999515043074808	3.039961e+02
247.999991685574656	3.040017e+02
249.002356430929581	3.040074e+02
250.000565355472645	3.040131e+02
251.000732934448166	3.040189e+02
251.999708502626078	3.040247e+02
253.000512989818787	3.040306e+02
253.999885102590099	3.040365e+02
255.001070266916685	3.040425e+02
256.000839560378154	3.040485e+02
257.002428650690433	3.040547e+02
257.999811689606702	3.040609e+02
259.001750639557088	3.040671e+02
260.001118134239789	3.040733e+02
261.0003499609453	3.040794e+02
262.002242301688852	3.040855e+02
263.00038849849949	3.040913e+02
264.000905347231651	3.040970e+02
265.000507148832071	3.041024e+02
266.001962269527269	3.041076e+02
267.001916114889923	3.041125e+02
268.000509559255079	3.041172e+02
269.000928206782703	3.041218e+02
270.000007865947964	3.041262e+02
271.000424375674072	3.041306e+02
272.001918020223684	3.041348e+02
273.001711716248963	3.041390e+02
274.000259563707004	3.041431e+02
275.001150352234959	3.041471e+02
276.001368364580856	3.041509e+02
277.000464361424179	3.041543e+02
278.001159856900301	3.041576e+02
279.000440219970642	3.041606e+02
280.001416704900123	3.041635e+02
281.001363233582481	3.041662e+02
282.000450491904587	3.041688e+02
283.001441506528238	3.041713e+02
284.000898257364383	3.041739e+02
285.001884224806759	3.041764e+02
286.001695158509449	3.041789e+02
287.00083686584918	3.041814e+02
287.999779922023777	3.041838e+02
289.00217000750348	3.041862e+02
289.999818932370886	3.041887e+02
291.002390998074702	3.041912e+02
292.000324383956922	3.041937e+02
293.002281315476978	3.041962e+02
294.001828078367453	3.041988e+02
295.001611671774583	3.042012e+02
296.001314901285866	3.042036e+02
297.00088689875497	3.042058e+02
298.00038530568753	3.042078e+02
298.99979428595401	3.042098e+02
300.002174996140184	3.042117e+02
301.001629792814299	3.042136e+02
302.001459111373606	3.042156e+02
303.001930965865313	3.042176e+02
304.000231942945902	3.042196e+02
304.999558167453529	3.042218e+02
305.999740373459133	3.042240e+02
307.00049372421114	3.042263e+02
308.001623502406176	3.042286e+02
308.999886381099657	3.042310e+02
310.001413061204403	3.042332e+02
311.000237423209796	3.042353e+02
311.999647676510733	3.042374e+02
312.999797447474521	3.042393e+02
314.00077313436168	3.042411e+02
314.999478399374595	3.042429e+02
316.001990115735566	3.042446e+02
317.001905398249903	3.042464e+02
318.002171419029537	3.042481e+02
318.999812552419371	3.042500e+02
320.001245077814531	3.042518e+02
321.00032755763084	3.042538e+02
321.999810468384169	3.042558e+02
322.99953236046241	3.042579e+02
324.002261250268589	3.042600e+02
325.00131355461167	3.042621e+02
325.999607697640556	3.042642e+02
327.000043180232751	3.042661e+02
328.002412231241237	3.042678e+02
329.000458313912361	3.042693e+02
330.000575270518993	3.042705e+02
330.99988426793476	3.042715e+02
332.001383612835525	3.042722e+02
333.002008264080985	3.042728e+02
334.00191188491641	3.042734e+02
335.00115025317632	3.042740e+02
335.999693180028885	3.042746e+02
337.000793258894248	3.042753e+02
338.001952926178944	3.042761e+02
339.000304708887768	3.042770e+02
340.002014322204161	3.042778e+02
341.001025424621218	3.042787e+02
342.00024299366703	3.042795e+02
342.999464099637976	3.042803e+02
344.001543545480956	3.042811e+02
345.000291069840671	3.042818e+02
346.001795610644365	3.042825e+02
346.999927843140654	3.042832e+02
348.000987026071982	3.042840e+02
349.002165312943305	3.042848e+02
350.000459537454105	3.042855e+02
351.001932414771431	3.042863e+02
352.000442991369937	3.042870e+02
353.002185159184023	3.042876e+02
354.000931348699794	3.042882e+02
354.999606586708012	3.042886e+02
356.001242268716737	3.042890e+02
356.99973038914743	3.042893e+02
358.001176667245943	3.042895e+02
358.99945403706937	3.042897e+02
360.000768690903158	3.042898e+02
361.002189686773875	3.042899e+02
362.000773394692033	3.042900e+02
362.999684936947801	3.042901e+02
364.002107137089581	3.042902e+02
365.002007967804445	3.042903e+02
365.999470042928806	3.042904e+02
367.000687280871944	3.042906e+02
367.999530951051156	3.042909e+02
369.002067429825445	3.042913e+02
370.001889301599874	3.042918e+02
371.001790006237911	3.042924e+02
372.001657672861313	3.042930e+02
373.001395802476452	3.042936e+02
374.000962132299151	3.042942e+02
375.000382853457552	3.042947e+02
375.999792565119492	3.042951e+02
377.002436551305266	3.042954e+02
378.002318536379676	3.042956e+02
378.999502150836918	3.042956e+02
380.000040843411853	3.042956e+02
381.000627384820518	3.042955e+02
382.001002752364514	3.042954e+02
383.00115669650495	3.042953e+02
384.001362274559426	3.042953e+02
385.001836803982656	3.042953e+02
385.999673120352725	3.042954e+02
387.001085723101198	3.042957e+02
387.999674785773095	3.042959e+02
389.001503394841222	3.042962e+02
390.000277953550949	3.042965e+02
391.001992424886225	3.042967e+02
392.000294823884644	3.042970e+02
393.001073367511026	3.042971e+02
394.001031081924282	3.042972e+02
395.000083225457615	3.042972e+02
396.001391167296504	3.042970e+02
397.002142969087799	3.042966e+02
398.002486927678831	3.042960e+02
399.002454552175777	3.042952e+02
400.001999540525617	3.042943e+02
401.000839329190683	3.042933e+02
402.001818410464637	3.042924e+02
403.001560964542819	3.042915e+02
403.999786884809168	3.042906e+02
404.999724608758868	3.042898e+02
406.002155654581145	3.042889e+02
407.001519020125158	3.042881e+02
408.001202559612636	3.042872e+02
409.001369975461614	3.042863e+02
410.002043393628696	3.042853e+02
410.999972389979689	3.042844e+02
412.001170458417903	3.042835e+02
412.999627710769573	3.042825e+02
414.001692730684454	3.042816e+02
415.001429484919584	3.042808e+02
416.001825319840179	3.042801e+02
416.999635767361269	3.042796e+02
418.000859963892083	3.042791e+02
419.002365467976858	3.042787e+02
420.001016045350354	3.042783e+02
420.999914896541213	3.042778e+02
422.002133010558055	3.042772e+02
423.001501058126678	3.042766e+02
424.001069151508716	3.042758e+02
425.000824954660288	3.042750e+02
426.000668953435365	3.042740e+02
427.000478133099705	3.042729e+02
428.000310505721586	3.042718e+02
429.000300211275032	3.042706e+02
430.00050079737332	3.042694e+02
431.000971266033559	3.042682e+02
432.001782535379562	3.042671e+02
432.999925628943629	3.042660e+02
434.001561009992656	3.042650e+02
435.000563914871123	3.042641e+02
435.999970321399474	3.042632e+02
436.999630166304769	3.042624e+02
438.002466683619161	3.042617e+02
439.002192183795387	3.042610e+02
440.001688224110467	3.042603e+02
441.000709643122434	3.042596e+02
442.002232338345664	3.042588e+02
443.000112582989857	3.042579e+02
444.000667855841584	3.042569e+02
445.001001007242792	3.042557e+02
446.001186836704903	3.042543e+02
447.001232704298559	3.042527e+02
448.000910513210442	3.042511e+02
449.000011552115325	3.042495e+02
450.00110361713098	3.042479e+02
451.000822641461355	3.042463e+02
452.002366066913225	3.042447e+02
453.000011650833812	3.042431e+02
454.000108872903866	3.042415e+02
455.000233422348913	3.042399e+02
456.000785399313656	3.042382e+02
457.001850476985567	3.042365e+02
458.000289331378383	3.042347e+02
459.002052251780583	3.042330e+02
460.001104160380521	3.042313e+02
461.000605394844229	3.042296e+02
462.000647284535148	3.042280e+02
463.001173175470285	3.042265e+02
464.00204395615998	3.042251e+02
465.000109990166891	3.042238e+02
466.001419342150768	3.042225e+02
466.999665365169903	3.042212e+02
468.000946758895623	3.042198e+02
469.00234917832978	3.042184e+02
470.000864960320541	3.042169e+02
471.002477313541476	3.042153e+02
472.000846115626814	3.042135e+02
473.001921648078792	3.042116e+02
473.999450733767674	3.042097e+02
475.002485419731613	3.042077e+02
476.001736261685664	3.042056e+02
477.000260252070859	3.042034e+02
478.001290283438777	3.042012e+02
479.002008661757372	3.041990e+02
479.999562910336579	3.041968e+02
481.000322084070604	3.041946e+02
482.001520182046136	3.041924e+02
483.000129708258498	3.041903e+02
484.002359095712279	3.041882e+02
485.002231876276539	3.041863e+02
485.999765812743988	3.041845e+02
487.000864815357943	3.041828e+02
488.002170062228913	3.041812e+02
489.00045954244689	3.041796e+02
490.001794625150296	3.041781e+02
491.000023860958038	3.041765e+02
492.001336155991623	3.041748e+02
492.999710818571032	3.041730e+02
494.001329079959532	3.041711e+02
494.999968105950188	3.041690e+02
496.001562342131649	3.041668e+02
496.999754554658693	3.041646e+02
498.000257974445901	3.041622e+02
498.999633121729119	3.041599e+02
500.000600046659713	3.041574e+02
501.000301677009986	3.041550e+02
502.002412948044253	3.041524e+02
503.001270200884846	3.041499e+02
504.000282790935785	3.041473e+02
504.999706850163989	3.041448e+02
505.999664625479113	3.041422e+02
507.000112705771187	3.041396e+02
508.001079532326344	3.041371e+02
508.999694129455179	3.041346e+02
510.002150127088953	3.041323e+02
511.002218394323165	3.041301e+02
511.999617029439776	3.041280e+02
513.000336886104947	3.041260e+02
514.001282186812773	3.041240e+02
515.002424232829867	3.041220e+02
516.000697486192735	3.041199e+02
517.002277367944544	3.041178e+02
518.001087041363917	3.041156e+02
519.000070186908943	3.041132e+02
520.002061922669782	3.041108e+02
521.000512523646989	3.041082e+02
522.001053482481552	3.041056e+02
523.00007566929969	3.041029e+02
524.00040467210556	3.041001e+02
525.002202554868177	3.040972e+02
525.999694312942552	3.040942e+02
526.999458637387761	3.040912e+02
528.002023008216497	3.040881e+02
529.001696489106394	3.040850e+02
530.001685071507382	3.040818e+02
531.002105257858034	3.040787e+02
532.000102648962866	3.040757e+02
533.002010846639109	3.040728e+02
534.001793663617718	3.040700e+02
535.00238793895619	3.040674e+02
536.000543394840406	3.040649e+02
537.00221616204044	3.040624e+02
538.001316173628652	3.040601e+02
539.000898988117228	3.040578e+02
540.000958099782565	3.040554e+02
541.001466161834855	3.040530e+02
542.002421923823476	3.040505e+02
543.000713570675316	3.040479e+02
544.002193041538362	3.040452e+02
545.000406429081409	3.040424e+02
546.00095340545306	3.040394e+02
547.00021874262427	3.040364e+02
548.000745048939393	3.040333e+02
549.002445044088745	3.040301e+02
549.999562917941262	3.040268e+02
551.001704629471192	3.040233e+02
552.000285762018734	3.040199e+02
553.001876807178064	3.040163e+02
554.000655055405559	3.040128e+02
554.999829365842629	3.040092e+02
555.999567795011444	3.040057e+02
557.000175434605808	3.040024e+02
558.001793394211631	3.039992e+02
559.00131092580159	3.039961e+02
560.001546083334915	3.039932e+02
561.002386530925833	3.039904e+02
562.000729949413312	3.039876e+02
562.999653645662534	3.039849e+02
564.00229373021466	3.039822e+02
564.999475585275604	3.039795e+02
566.000311189876584	3.039767e+02
567.001666591151775	3.039738e+02
568.000307677030833	3.039708e+02
569.001989843350998	3.039677e+02
570.000023661687237	3.039646e+02
570.999700393102785	3.039613e+02
572.000439015618099	3.039579e+02
573.002230577215073	3.039544e+02
574.002266792418823	3.039507e+02
575.000829058087334	3.039470e+02
576.001393769855326	3.039431e+02
577.001472104321579	3.039392e+02
578.001635884421603	3.039352e+02
579.002225501488283	3.039312e+02
580.000387462350659	3.039273e+02
581.002380412888328	3.039234e+02
582.002327348264998	3.039198e+02
583.000205700019592	3.039162e+02
584.001947425262415	3.039128e+02
585.001403597161357	3.039096e+02
586.001610182698755	3.039064e+02
586.999474569159929	3.039033e+02
588.001157742226951	3.039001e+02
589.000631909316667	3.038970e+02
590.000920806390923	3.038939e+02
591.001864889442004	3.038907e+02
592.000226401013947	3.038874e+02
593.001883186344003	3.038841e+02
594.000098638576901	3.038807e+02
595.000086811843175	3.038771e+02
596.001196695657427	3.038735e+02
597.000336537858743	3.038697e+02
598.000764526629723	3.038657e+02
598.999522899176213	3.038617e+02
599.99982476013588	3.038575e+02
601.002285755532398	3.038531e+02
602.001591538951516	3.038488e+02
603.001281703943391	3.038444e+02
604.001616661409116	3.038401e+02
604.999745050567526	3.038358e+02
606.001895755989949	3.038317e+02
607.001981525184647	3.038278e+02
607.999884555359131	3.038239e+02
609.001675652836298	3.038202e+02
610.001269377164135	3.038166e+02
611.001645590090448	3.038130e+02
611.999754677846681	3.038095e+02
613.001761147372122	3.038061e+02
614.001546520031638	3.038026e+02
615.002035165274378	3.037991e+02
616.000039708262875	3.037955e+02
617.001462896928274	3.037919e+02
617.999515416417125	3.037882e+02
618.999470065691867	3.037844e+02
620.000805606669473	3.037805e+02
621.000240791944179	3.037765e+02
622.000838850833702	3.037723e+02
622.999656623172655	3.037681e+02
623.999766480964695	3.037637e+02
625.001803129988502	3.037592e+02
626.000317040151231	3.037548e+02
627.001683696620375	3.037501e+02
628.000315543485499	3.037458e+02
629.002561217216908	3.037415e+02
630.002438879278088	3.037375e+02
631.002955673773158	3.037336e+02
632.001012629589809	3.037300e+02
633.002699473447251	3.037265e+02
634.001889312937465	3.037232e+02
635.001553274005119	3.037200e+02
636.001736588772701	3.037170e+02
637.002452317897564	3.037140e+02
638.000595801157715	3.037112e+02
639.002197008557346	3.037084e+02
640.001032774407008	3.037056e+02
641.002958105666721	3.037029e+02
642.001641230730115	3.037001e+02
643.002930592774305	3.036974e+02
644.000536261087632	3.036946e+02
645.000400906263053	3.036918e+02
646.002403030734968	3.036890e+02
647.000428710698316	3.036862e+02
648.000698545681189	3.036833e+02
649.000499989700188	3.036805e+02
650.003277544149341	3.036778e+02
651.000378245951083	3.036751e+02
652.001269812120313	3.036726e+02
653.003251301835121	3.036701e+02
654.00039499311265	3.036678e+02
655.001834081739048	3.036657e+02
656.001407575095755	3.036637e+02
657.002107554136728	3.036619e+02
658.000810264371694	3.036603e+02
659.000585027827697	3.036588e+02
660.001440115899527	3.036575e+02
661.000279426955217	3.036562e+02
662.003236992262941	3.036550e+02
663.001194083112182	3.036539e+02
664.000315549291145	3.036529e+02
665.000678853412523	3.036518e+02
666.002406258324299	3.036507e+02
667.002517167895007	3.036496e+02
668.000983778476439	3.036486e+02
669.000775934492253	3.036475e+02
670.00169892973895	3.036465e+02
671.000584711122087	3.036455e+02
672.000405870367331	3.036447e+02
673.001034998789009	3.036439e+02
674.002207470605072	3.036432e+02
675.000366758409314	3.036426e+02
676.001163021949083	3.036422e+02
677.000851495268762	3.036417e+02
678.001914457235216	3.036413e+02
679.001062991906679	3.036410e+02
680.001497095162676	3.036406e+02
681.00051293938543	3.036401e+02
682.001949242616547	3.036396e+02
683.000307428148062	3.036389e+02
684.002000574079375	3.036381e+02
685.001080216755781	3.036373e+02
686.001043964556743	3.036365e+02
687.002317362028862	3.036358e+02
688.00198630270188	3.036353e+02
689.003310225097039	3.036351e+02
690.003069391481517	3.036350e+02
691.001489026205945	3.036351e+02
692.001466734477731	3.036352e+02
693.001521395924215	3.036354e+02
694.000843959614485	3.036357e+02
695.00174722867348	3.036359e+02
696.000258784699326	3.036362e+02
697.002035589103343	3.036364e+02
698.000951547002842	3.036367e+02
699.000634646862295	3.036370e+02
700.002415252430978	3.036373e+02
701.001919582793789	3.036375e+02
702.003169270331341	3.036376e+02
703.000290042589882	3.036375e+02
704.002752621482614	3.036374e+02
705.001068226338248	3.036373e+02
706.001170381890347	3.036374e+02
707.003024585313028	3.036376e+02
708.000841218370624	3.036380e+02
709.003096664100667	3.036386e+02
710.001867467065381	3.036392e+02
711.001900809525296	3.036399e+02
712.002230525301115	3.036406e+02
713.002616782116434	3.036414e+02
714.003153813684435	3.036422e+02
715.002230783905134	3.036431e+02
716.001449405971812	3.036440e+02
717.002198600861902	3.036450e+02
718.002608436556102	3.036461e+02
719.00084155514071	3.036471e+02
720.00034254503862	3.036481e+02
721.003243936275453	3.036490e+02
722.001915774100667	3.036498e+02
723.001868895556413	3.036506e+02
724.00148624064002	3.036514e+02
725.00179498576847	3.036524e+02
726.002897002168879	3.036535e+02
727.00311715667317	3.036548e+02
728.000286860048504	3.036563e+02
729.000736412889978	3.036579e+02
730.001335613441825	3.036597e+02
731.00226535468903	3.036616e+02
732.000344958311075	3.036637e+02
733.002581780720789	3.036660e+02
734.001590215599776	3.036684e+02
735.002510360109227	3.036709e+02
736.001119003012491	3.036735e+02
737.001391551654592	3.036762e+02
738.00306896377856	3.036788e+02
739.002326407581904	3.036813e+02
740.000887971552743	3.036837e+02
741.003218013704668	3.036861e+02
742.001481341004705	3.036884e+02
743.002872445924595	3.036908e+02
744.000994513999103	3.036934e+02
745.001899127643014	3.036963e+02
746.000416920793327	3.036993e+02
747.002640621007231	3.037025e+02
748.002178343825335	3.037059e+02
749.001337642119438	3.037095e+02
750.000390949670987	3.037132e+02
751.00119595503304	3.037171e+02
752.003305956728241	3.037211e+02
753.002766298378219	3.037252e+02
754.000487219143793	3.037294e+02
754.999128065390664	3.037334e+02
756.000699113219298	3.037376e+02
757.001166705096352	3.037417e+02
757.9990673524984	3.037456e+02
758.998830655214419	3.037496e+02
759.999774459978198	3.037535e+02
761.001845671626256	3.037574e+02
761.999234547841183	3.037614e+02
763.001897102366797	3.037655e+02
764.000474273164173	3.037697e+02
765.001089212482157	3.037741e+02
766.00031405992695	3.037786e+02
767.001331895921226	3.037834e+02
767.998939243757377	3.037883e+02
769.000348733082888	3.037934e+02
770.000346304854816	3.037986e+02
770.999690083257178	3.038040e+02
772.001694284471114	3.038095e+02
772.999525002927498	3.038149e+02
774.001447371615313	3.038204e+02
774.999573477696117	3.038257e+02
775.999130282261149	3.038310e+02
776.999804294107548	3.038362e+02
778.001913556874001	3.038415e+02
778.999821593015895	3.038467e+02
780.00029731203108	3.038520e+02
781.000357685635095	3.038574e+02
781.999688636512928	3.038630e+02
783.000736637852924	3.038687e+02
784.000328374678361	3.038746e+02
784.999532959951352	3.038807e+02
785.999595065719973	3.038870e+02
787.001474755621871	3.038934e+02
787.999503057897869	3.038998e+02
788.999637772349502	3.039062e+02
790.000263096708409	3.039126e+02
790.999859417053472	3.039189e+02
792.000469008794312	3.039251e+02
793.00178677720703	3.039312e+02
794.000983481086109	3.039372e+02
794.99902037145398	3.039433e+02
795.999854815066215	3.039496e+02
797.000675214177022	3.039560e+02
798.00141209552055	3.039625e+02
799.001867022362831	3.039694e+02
800.001828341265082	3.039764e+02
801.001338273818988	3.039836e+02
802.000899584390368	3.039909e+02
803.000859755815895	3.039984e+02
804.001487791138061	3.040059e+02
804.999638548220901	3.040134e+02
806.000962325932733	3.040208e+02
807.001436761686705	3.040281e+02
808.000323512251384	3.040353e+02
809.00042085339976	3.040424e+02
809.998953162832777	3.040495e+02
810.999747731377965	3.040567e+02
812.000445808906875	3.040641e+02
813.001717187329405	3.040716e+02
814.000996803616999	3.040792e+02
815.001483876146722	3.040871e+02
815.999943347408589	3.040951e+02
816.999292610092539	3.041033e+02
817.999422182798639	3.041116e+02
819.000088555690922	3.041200e+02
820.000915976270903	3.041284e+02
821.001627781565844	3.041368e+02
821.999024125580377	3.041452e+02
822.999456681264405	3.041537e+02
824.000137641189554	3.041618e+02
825.001193434255015	3.041703e+02
825.999397237883954	3.041788e+02
827.000763383723665	3.041875e+02
828.002079249046233	3.041963e+02
829.000246267058628	3.042051e+02
830.00154344749194	3.042140e+02
830.999966498661593	3.042230e+02
832.001856072553323	3.042320e+02
833.001041112862708	3.042411e+02
834.000563356959333	3.042503e+02
835.00031503114792	3.042596e+02
836.000166531887203	3.042689e+02
837.000009775649346	3.042782e+02
837.999784166984455	3.042876e+02
838.999471659427968	3.042971e+02
840.002204895327623	3.043066e+02
841.001838571116878	3.043161e+02
842.001533997478646	3.043257e+02
843.001348156905578	3.043353e+02
844.001352192163722	3.043450e+02
845.001617405196043	3.043547e+02
846.002206649403661	3.043644e+02
847.000045342504222	3.043742e+02
848.001393495137449	3.043840e+02
849.000066851526526	3.043939e+02
850.002283531297962	3.044038e+02
851.001806190957154	3.044138e+02
852.001667167656137	3.044238e+02
853.001720161459843	3.044338e+02
854.001760357195053	3.044438e+02
855.001618582941546	3.044539e+02
856.001231692467059	3.044640e+02
857.000630531345109	3.044742e+02
857.99996229766748	3.044843e+02
858.999400089640289	3.044945e+02
860.002184410614973	3.045048e+02
861.002150572704522	3.045150e+02
862.002463908175059	3.045253e+02
863.000066538356009	3.045355e+02
864.001232347321775	3.045458e+02
864.99970192988701	3.045561e+02
866.001726844160999	3.045664e+02
867.001286482540422	3.045767e+02
868.001722134854617	3.045871e+02
868.999880348745478	3.045974e+02
870.001935170645083	3.046078e+02
871.00153155291548	3.046182e+02
872.0017061958564	3.046286e+02
873.002356219041417	3.046390e+02
874.000232591689496	3.046494e+02
875.001540439890846	3.046599e+02
875.999910386195324	3.046703e+02
877.001481693932647	3.046808e+02
877.999885993603129	3.046913e+02
879.001263833787675	3.047017e+02
880.002358569299645	3.047122e+02
881.000190642385405	3.047227e+02
882.001048526399813	3.047332e+02
883.001775415075372	3.047436e+02
884.002395579254085	3.047541e+02
884.999657572765045	3.047645e+02
885.999789404366311	3.047749e+02
886.999646439540584	3.047853e+02
888.00237734016082	3.047956e+02
889.001756230626597	3.048059e+02
890.001077707016407	3.048162e+02
891.000482175845718	3.048264e+02
892.000062393017856	3.048365e+02
892.999780154953783	3.048466e+02
893.999524496379763	3.048566e+02
895.002367962400854	3.048666e+02
896.002059434752709	3.048765e+02
897.001876985525996	3.048863e+02
898.001892976587442	3.048961e+02
899.002072739497748	3.049057e+02
900.00226647199645	3.049153e+02
901.002219015446826	3.049247e+02
902.001877484636907	3.049341e+02
903.001448291134466	3.049433e+02
904.00081956489646	3.049523e+02
904.999870014935254	3.049613e+02
906.001502056804497	3.049701e+02
907.0021787960859	3.049788e+02
908.00142348136967	3.049874e+02
909.002361261939882	3.049959e+02
910.001701741693751	3.050043e+02
911.002025306961968	3.050127e+02
912.000084906579787	3.050209e+02
913.002387033920058	3.050291e+02
914.000174875382299	3.050372e+02