# Region type : patch node2U_2_Inlet_0
#   Faces  : 148
#   Area   : 1.734765e-02
#        Time	areaAverage(T)
     0.999427	2.971500e+02
      2.00049	2.971500e+02
      3.00031	2.971500e+02
      3.99974	2.971500e+02
     4.999852	2.971500e+02
     6.001051	2.971500e+02
     7.000531	2.971500e+02
     8.000508	2.971500e+02
     9.000207	2.971500e+02
   10.0013794	2.971499e+02
   11.0007483	2.971498e+02
   12.0009581	2.971498e+02
   13.0012716	2.971498e+02
   14.0004204	2.971494e+02
 15.000882636	2.971464e+02
 16.001077857	2.971418e+02
 17.000874587	2.971424e+02
 18.001297825	2.971462e+02
 18.999997331	2.971484e+02
19.99974363277	2.971492e+02
21.00013000688	2.971500e+02
21.99951010608	2.971514e+02
23.0007789643	2.971536e+02
24.00030977396	2.971568e+02
25.0006876778063	2.971607e+02
26.0018211622955	2.971651e+02
27.0009272325863	2.971696e+02
28.0011152818829	2.971744e+02
29.0019150399812	2.971792e+02
29.99963339520048	2.971843e+02
30.99975399205533	2.971897e+02
32.00195808300927	2.971959e+02
33.00036351629399	2.972032e+02
34.00152031133324	2.972122e+02
35.0000319973371177	2.972228e+02
35.9994773442381373	2.972344e+02
37.0001987197160886	2.972463e+02
38.0021760230756698	2.972575e+02
39.00197720717415	2.972674e+02
39.9992493953574311	2.972763e+02
40.9997077548663924	2.972854e+02
41.9997772181670257	2.972966e+02
42.999310659153366	2.973119e+02
44.0015347624523443	2.973321e+02
45.0010431952246606	2.973569e+02
46.0015630644595674	2.973851e+02
47.0003914929805973	2.974151e+02
48.0006664008883988	2.974457e+02
48.9991798779657941	2.974765e+02
50.0019712486823522	2.975071e+02
51.0000250247866376	2.975372e+02
51.9993676124829278	2.975666e+02
53.0000102154659061	2.975948e+02
54.0019344414052966	2.976217e+02
55.0020148194735441	2.976471e+02
56.0001285932337183	2.976709e+02
56.9992249820097356	2.976936e+02
57.9991997163307076	2.977152e+02
58.9999550090565776	2.977361e+02
60.0014234958739223	2.977567e+02
61.0004632500940716	2.977773e+02
62.000084864072889	2.977983e+02
63.0001545402539449	2.978202e+02
64.0004856331644447	2.978432e+02
65.0008133628472962	2.978676e+02
66.0008771940652679	2.978934e+02
67.0005580913406646	2.979205e+02
67.9997585603099282	2.979485e+02
69.0015514355213213	2.979771e+02
69.9999253267697554	2.980057e+02
71.001416919001457	2.980336e+02
72.0003077102233533	2.980601e+02
73.0000055650002224	2.980848e+02
74.0004542701351511	2.981077e+02
75.0012297314367942	2.981293e+02
76.0017050601433084	2.981501e+02
77.0015829030590453	2.981706e+02
78.0008310964979046	2.981910e+02
78.9994719340231342	2.982112e+02
80.0003766774256206	2.982313e+02
81.000090712136938	2.982514e+02
82.0011817021768934	2.982715e+02
83.0003246902043372	2.982916e+02
84.000635528176602	2.983114e+02
85.002151218543375	2.983309e+02
86.0019154841315441	2.983498e+02
86.999858134032209	2.983681e+02
88.0019842097888443	2.983860e+02
88.9991847072950151	2.984035e+02
90.0007768188045105	2.984208e+02
91.0009443510056144	2.984376e+02
91.9999368140050677	2.984538e+02
93.0010377332170322	2.984691e+02
94.0014289302339137	2.984836e+02
95.001260826219692	2.984975e+02
96.0006467963373211	2.985113e+02
96.999775529914217	2.985253e+02
98.0017986127455174	2.985399e+02
99.0007953452049634	2.985552e+02
99.9998921861874521	2.985711e+02
101.002167746177733	2.985873e+02
102.001611169169919	2.986033e+02
103.001108123881082	2.986188e+02
104.00069629867761	2.986335e+02
105.000307167335905	2.986472e+02
105.999884637571597	2.986603e+02
106.999624119130672	2.986734e+02
107.999783765003897	2.986868e+02
109.000807134087594	2.987009e+02
110.000245367339758	2.987157e+02
111.001648316322559	2.987319e+02
112.002060277222085	2.987496e+02
113.001583257586134	2.987687e+02
114.00004902987483	2.987887e+02
115.000264700173574	2.988093e+02
115.999256073452329	2.988300e+02
116.999912870524199	2.988509e+02
118.002127807833489	2.988716e+02
118.999752322551686	2.988920e+02
120.001906793758025	2.989123e+02
120.999245613797044	2.989320e+02
122.000946821546322	2.989514e+02
123.000812985020247	2.989704e+02
124.001854225241345	2.989891e+02
125.000936136053497	2.990076e+02
126.001152641223015	2.990260e+02
126.999410789600915	2.990444e+02
128.001961632481311	2.990629e+02
128.999555256105111	2.990813e+02
130.001434220572349	2.990997e+02
131.001234252174271	2.991179e+02
132.001976555199946	2.991355e+02
133.000405107614313	2.991524e+02
133.999413159508748	2.991684e+02
135.001957773727753	2.991833e+02
136.001704465738015	2.991972e+02
137.001639977972786	2.992105e+02
138.001656385983182	2.992232e+02
139.001727842364744	2.992355e+02
140.001854900428924	2.992471e+02
141.001925166027661	2.992585e+02
142.001838070882826	2.992700e+02
143.001694497551256	2.992814e+02
144.001780702278353	2.992930e+02
144.999158453586546	2.993050e+02
146.000184501042924	2.993177e+02
147.001757090500718	2.993311e+02
148.000693452411298	2.993451e+02
149.000013916110248	2.993594e+02
149.999614991119046	2.993736e+02
150.999279695196009	2.993869e+02
152.001953552054829	2.993989e+02
153.00119091859321	2.994093e+02
153.999959907870476	2.994180e+02
155.001269857454702	2.994253e+02
156.001866723538257	2.994310e+02
157.00148678654574	2.994353e+02
158.000078914353907	2.994387e+02
159.000809258111389	2.994413e+02
160.00054322073612	2.994437e+02
160.99944520773923	2.994465e+02
162.0009891639541	2.994500e+02
162.99942802215736	2.994541e+02
164.00131199459744	2.994580e+02
165.000592589942698	2.994603e+02
166.000445789400771	2.994601e+02
167.000838140641321	2.994570e+02
168.001415928870301	2.994506e+02
169.001743095738561	2.994412e+02
170.001432670659028	2.994293e+02
171.000399259283512	2.994159e+02
172.001837692858402	2.994023e+02
172.999660659830084	2.993900e+02
174.000098842835285	2.993803e+02
174.999836336136383	2.993734e+02
176.001365810782971	2.993681e+02
177.000943064201977	2.993624e+02
178.001604056320758	2.993540e+02
179.000822767143518	2.993399e+02
179.999314161932858	2.993132e+02
181.00080418413043	2.992630e+02
181.999374682221401	2.991823e+02
183.000426286769908	2.990767e+02
183.99981243265654	2.989641e+02
185.000665096512705	2.988658e+02
186.001779247462963	2.987990e+02
187.001834854256145	2.987811e+02
188.00089416013779	2.988032e+02
188.999793751418537	2.988238e+02
190.000347457686473	2.988242e+02
191.001493020792083	2.988282e+02
192.0020583060045	2.988588e+02
193.00069600912056	2.989056e+02
193.999029078732406	2.989516e+02
195.001396055230401	2.989943e+02
196.001124468593218	2.990360e+02
197.000850877637561	2.990763e+02
197.999669501449944	2.991090e+02
198.999137126966104	2.991379e+02
200.000204346110621	2.991717e+02
200.999994365612508	2.992112e+02
202.000740385940901	2.992424e+02
203.001397483407857	2.992530e+02
204.001832839143333	2.992463e+02
205.001764506351861	2.992313e+02
206.000279349524874	2.992137e+02
206.999590444084987	2.991965e+02
208.002073486809792	2.991801e+02
209.000935632037624	2.991642e+02
209.99907615142331	2.991484e+02
210.999807537098093	2.991315e+02
212.000140205634267	2.991137e+02
212.999790055853026	2.990986e+02
214.001178962701886	2.990917e+02
215.001957095306096	2.990938e+02
216.002016694022757	2.990973e+02
217.001128324527116	2.990978e+02
217.999307770451367	2.991005e+02
219.000043122614443	2.991074e+02
220.001495041145034	2.991109e+02
221.000791042442671	2.991050e+02
222.000867326932422	2.990932e+02
223.000865258782284	2.990656e+02
224.00004922456921	2.990245e+02
224.999103485385007	2.989925e+02
226.000819599425597	2.989692e+02
227.000556402277141	2.989512e+02
228.001990900061628	2.989501e+02
229.00050128981951	2.989602e+02
230.000662562260715	2.989625e+02
231.001517251613734	2.989603e+02
232.002054503633701	2.989658e+02
232.999624697669219	2.989684e+02
234.001899833734797	2.989547e+02
235.000928222095155	2.989360e+02
236.001207734086364	2.989267e+02
237.00120218494942	2.989153e+02
238.000336127986714	2.988922e+02
239.000291577862043	2.988751e+02
240.001085343867828	2.988698e+02
241.001530104094513	2.988589e+02
242.001617381920084	2.988405e+02
243.001764566784857	2.988355e+02
243.999565845781888	2.988409e+02
245.001076570204503	2.988362e+02
245.999564063503755	2.988302e+02
247.001296020965242	2.988434e+02
248.000647476433841	2.988634e+02
249.000394425267416	2.988669e+02
250.000086700308174	2.988703e+02
251.000029461904262	2.988928e+02
252.000622709336767	2.989137e+02
253.001507084369791	2.989133e+02
253.999296946978632	2.989180e+02
255.000513749510361	2.989456e+02
255.99937944846522	2.989644e+02
257.001638605674373	2.989598e+02
258.000790428615119	2.989662e+02
259.000335381619379	2.989957e+02
260.000640572713849	2.990116e+02
261.001217649575608	2.990073e+02
262.001833320643925	2.990175e+02
262.99975522804823	2.990510e+02
264.001342752255653	2.990715e+02
264.999956744657595	2.990695e+02
266.001588475251424	2.990807e+02
267.000377967205281	2.991099e+02
267.999476630226638	2.991169e+02
269.001603331054298	2.991032e+02
270.000497456668143	2.991082e+02
270.999517717396657	2.991269e+02
272.001685082622487	2.991202e+02
273.000395906800065	2.991028e+02
274.001850861990022	2.991110e+02
275.000160789686618	2.991264e+02
276.001348329524262	2.991161e+02
277.00180343740692	2.991057e+02
277.999118702293913	2.991234e+02
278.999125682316389	2.991405e+02
280.000962051224349	2.991360e+02
281.000036086110754	2.991388e+02
281.999578793357955	2.991622e+02
283.000487623403785	2.991748e+02
284.000386865131702	2.991741e+02
285.001812708085538	2.991845e+02
285.999872122267391	2.992007e+02
287.001959280973949	2.992042e+02
288.001483256353481	2.992076e+02
288.999195388113208	2.992227e+02
290.001536912618633	2.992334e+02
290.999825934568491	2.992346e+02
291.999793352837628	2.992435e+02
293.000055635174419	2.992604e+02
294.001555773581686	2.992702e+02
295.000568111850498	2.992791e+02
296.001334268821552	2.992976e+02
297.001389592815656	2.993142e+02
298.00056202325527	2.993225e+02
299.001371642838535	2.993363e+02
299.999825472284613	2.993583e+02
300.999949741529747	2.993725e+02
302.00043630012442	2.993787e+02
302.999658365169523	2.993918e+02
304.001454837210645	2.994068e+02
305.001987264044715	2.994116e+02
306.000888954592767	2.994164e+02
307.001113123418577	2.994313e+02
308.000012928501349	2.994420e+02
309.001418047040147	2.994434e+02
310.00153347990647	2.994514e+02
311.002044085109276	2.994665e+02
312.000898960472114	2.994726e+02
312.999992802961856	2.994756e+02
314.000883201331703	2.994916e+02
315.001393680085187	2.995116e+02
316.000308843979553	2.995208e+02
317.000035912725821	2.995302e+02
318.001214669034141	2.995520e+02
319.001322723587009	2.995702e+02
320.0001849495481	2.995762e+02
321.00031987356158	2.995873e+02
322.001488142788958	2.996095e+02
323.001195896391437	2.996224e+02
324.00019401528084	2.996251e+02
325.000818969902582	2.996372e+02
326.001856873779218	2.996552e+02
327.001125280290125	2.996597e+02
328.000315544568082	2.996603e+02
329.001262353738753	2.996750e+02
330.001956646091571	2.996908e+02
331.000940874496621	2.996929e+02
332.000450603280967	2.996984e+02
333.001429383038214	2.997184e+02
334.00149851313455	2.997323e+02
335.000130483747455	2.997343e+02
335.999813743307527	2.997445e+02
337.000569480208469	2.997654e+02
337.999850767029045	2.997751e+02
339.001366300765255	2.997754e+02
340.001392229294197	2.997864e+02
341.001989383262753	2.998028e+02
342.000805448532162	2.998046e+02
342.999341508649991	2.998024e+02
343.999649126042868	2.998133e+02
344.999817484902337	2.998251e+02
346.00120186305935	2.998241e+02
346.999919531347189	2.998257e+02
348.000277208696389	2.998411e+02
348.999762983728033	2.998529e+02
350.000752951552442	2.998534e+02
350.999790646144163	2.998605e+02
352.000142607481621	2.998789e+02
352.999053114909771	2.998888e+02
354.000022142458533	2.998900e+02
354.999542899161725	2.999007e+02
355.999796890562266	2.999181e+02
357.0013277879886	2.999241e+02
357.999459225470162	2.999256e+02
358.99942719759656	2.999387e+02
359.999394156324911	2.999539e+02
361.000608648867683	2.999571e+02
361.999164794916567	2.999604e+02
362.999478839026779	2.999756e+02
363.9990658321056	2.999884e+02
365.000181974459736	2.999905e+02
365.9993526192996	2.999975e+02
366.999961893744285	3.000151e+02
367.999258381664959	3.000262e+02
369.000618576593524	3.000290e+02
370.000556938901525	3.000401e+02
371.001400500712919	3.000582e+02
372.000558725796282	3.000662e+02
372.999360403555102	3.000691e+02
374.000075879197823	3.000824e+02
375.001006735460123	3.000983e+02
376.000180449504001	3.001026e+02
376.99969363565782	3.001060e+02
378.001068574411988	3.001209e+02
379.001926616624644	3.001343e+02
380.001200909898955	3.001367e+02
381.001487254926417	3.001424e+02
382.000276333467241	3.001588e+02
383.000997041409391	3.001704e+02
384.000556172514621	3.001734e+02
385.001722609799742	3.001830e+02
386.000916008783861	3.002005e+02
387.001619198378705	3.002098e+02
388.0017311338529	3.002131e+02
389.0006481533228	3.002251e+02
390.000083133383498	3.002416e+02
391.000874154726318	3.002484e+02
392.001764806813867	3.002526e+02
393.00150629878442	3.002667e+02
394.001075762878145	3.002812e+02
395.00208350746766	3.002859e+02
396.000752108940787	3.002914e+02
397.001172662703141	3.003066e+02
398.000753033391049	3.003192e+02
399.002073025375068	3.003236e+02
400.001614478170325	3.003319e+02
400.9994314486039	3.003484e+02
401.999028103711339	3.003595e+02
403.000817733155429	3.003639e+02
404.001209075147528	3.003743e+02
404.999355857654223	3.003905e+02
405.999016860167842	3.003997e+02
407.001467028213995	3.004047e+02
407.99953025211596	3.004171e+02
409.000893133857574	3.004324e+02
410.000584309911005	3.004398e+02
411.000582052290156	3.004452e+02
411.999256250268616	3.004588e+02
413.000652120897712	3.004729e+02
414.00054428794391	3.004794e+02
415.001281709516036	3.004869e+02
416.000487912894982	3.005023e+02
417.001883747261786	3.005155e+02
417.999005369227973	3.005214e+02
419.00057663625995	3.005301e+02
420.00025445050801	3.005457e+02
421.001755936753284	3.005575e+02
421.999464218265075	3.005632e+02
423.001904533142579	3.005738e+02
424.001921347828443	3.005892e+02
425.000466314490154	3.005991e+02
426.001887336327343	3.006045e+02
427.001850658339492	3.006160e+02
428.001930236295891	3.006306e+02
429.000639473776005	3.006392e+02
429.999679731412243	3.006460e+02
431.000219478582835	3.006593e+02
432.000373978315451	3.006733e+02
432.999414622679637	3.006809e+02
433.999218292117803	3.006886e+02
435.000222703693453	3.007026e+02
436.000569272218343	3.007158e+02
437.000184805965148	3.007237e+02
438.000781612716366	3.007336e+02
438.999125994428198	3.007484e+02
439.999824854801489	3.007605e+02
441.000107694782741	3.007678e+02
442.001414673952752	3.007780e+02
443.000133559173491	3.007924e+02
444.001221101481462	3.008040e+02
444.999099423042537	3.008122e+02
446.001108504666604	3.008241e+02
447.000218114153085	3.008389e+02
448.001717092294427	3.008495e+02
449.000262908990692	3.008572e+02
449.999724624943156	3.008694e+02
450.999136444263911	3.008845e+02
452.001159651862167	3.008960e+02
453.000446264927007	3.009064e+02
454.000369372612113	3.009208e+02
455.000073091668014	3.009350e+02
455.999593558120239	3.009450e+02
456.999598086077754	3.009561e+02
457.99987472406923	3.009712e+02
459.000002836692488	3.009850e+02
460.000253001370595	3.009969e+02
461.000850128326647	3.010104e+02
462.001543952557597	3.010248e+02
462.999157105762094	3.010370e+02
464.00008705773439	3.010493e+02
465.001151576518339	3.010633e+02
465.999160210282923	3.010773e+02
467.000372194337842	3.010903e+02
468.001704332498662	3.011032e+02
469.000054292852951	3.011161e+02
470.001660330736684	3.011286e+02
471.000250049261581	3.011410e+02
472.00204730246827	3.011539e+02
473.000793750327773	3.011672e+02
473.999598816996979	3.011807e+02
475.001576575320996	3.011943e+02
476.000478453675385	3.012080e+02
476.999453617893039	3.012221e+02
478.001628087775032	3.012367e+02
479.000685005862522	3.012515e+02
479.999717451953984	3.012664e+02
481.001817580665602	3.012815e+02
482.000698529870704	3.012963e+02
482.999444041458446	3.013109e+02
484.00114516359605	3.013251e+02
484.999516919826988	3.013390e+02
486.000744158154475	3.013530e+02
487.001640681699655	3.013672e+02
487.999051829069458	3.013816e+02
488.999192744301467	3.013955e+02
490.002023226460096	3.014085e+02
491.001242813851206	3.014205e+02
491.999884397250014	3.014321e+02
493.001009377441278	3.014437e+02
494.001476852349924	3.014555e+02
495.001285472404845	3.014676e+02
496.000450327715612	3.014806e+02
496.99899621900488	3.014950e+02
498.000053311175577	3.015116e+02
499.00060083986989	3.015307e+02
500.000737072763684	3.015526e+02
501.000591769437108	3.015779e+02
502.000208876539546	3.016070e+02
502.999764626682236	3.016397e+02
503.999412480151136	3.016753e+02
504.999290126229312	3.017135e+02
505.999349237977185	3.017540e+02
506.999473785521332	3.017960e+02
507.999534199149252	3.018392e+02
508.999536408661015	3.018828e+02
509.999709227700635	3.019265e+02
511.000305253928047	3.019700e+02
512.001564169306107	3.020125e+02
513.000459958846477	3.020532e+02
514.000000137032998	3.020920e+02
514.999946453350162	3.021286e+02
516.000078308920706	3.021628e+02
517.000282309292743	3.021947e+02
518.000432344535852	3.022242e+02
519.000419896216954	3.022512e+02
520.000125688293338	3.022756e+02
520.99942035027766	3.022974e+02
522.00134543233753	3.023170e+02
522.999671701982152	3.023345e+02
524.000524118646013	3.023504e+02
525.000731136589252	3.023651e+02
526.000297827883287	3.023790e+02
526.999260571597233	3.023920e+02
528.000645107167429	3.024034e+02
529.001264393626911	3.024124e+02
530.001077988426687	3.024186e+02
531.000065312895458	3.024217e+02
532.001315056225394	3.024222e+02
533.001707720800141	3.024209e+02
534.001285810565491	3.024192e+02
535.000044672685135	3.024181e+02
536.001097517393532	3.024184e+02
537.001493639294836	3.024199e+02
538.00137710778904	3.024220e+02
539.000861492436684	3.024245e+02
539.999946078138805	3.024274e+02
541.001670846049706	3.024312e+02
541.999974070149506	3.024365e+02
543.001032412396171	3.024436e+02
544.00187550203691	3.024521e+02
544.999635864134689	3.024608e+02
546.000752608726543	3.024691e+02
546.999350806067582	3.024766e+02
548.001666601431793	3.024837e+02
549.001620101872959	3.024905e+02
549.999182976379075	3.024965e+02
551.000562195443194	3.025009e+02
551.999819381045654	3.025023e+02
553.000139540583064	3.025000e+02
554.001659876498479	3.024941e+02
555.001285371075141	3.024853e+02
556.001992208278352	3.024747e+02
557.000644070668955	3.024629e+02
558.000374325904204	3.024497e+02
559.00127035418177	3.024341e+02
560.0002488162894	3.024149e+02
561.000384772003827	3.023915e+02
562.001649053330652	3.023644e+02
563.00079826851595	3.023354e+02
564.000709201707878	3.023071e+02
565.001107483245846	3.022814e+02
566.001814326721956	3.022588e+02
566.999450832934599	3.022385e+02
568.000441060655703	3.022195e+02
569.002085603385467	3.022021e+02
570.001286315512857	3.021895e+02
571.001000265209882	3.021831e+02
572.000780453009497	3.021827e+02
572.999627752382253	3.021854e+02
574.000788636163406	3.021869e+02
575.001523033986814	3.021838e+02
575.999096716751296	3.021765e+02
576.999539123055001	3.021689e+02
578.001718824263094	3.021662e+02
578.999575214731863	3.021712e+02
579.99970800245751	3.021841e+02
580.999308374467887	3.022017e+02
582.001751996022222	3.022197e+02
583.001118668232039	3.022340e+02
584.00064235460502	3.022441e+02
585.00032109883432	3.022491e+02
586.000047061267423	3.022487e+02
586.999704989423435	3.022432e+02
587.99919608509606	3.022333e+02
589.001692766106316	3.022203e+02
590.000987235550724	3.022058e+02
591.000185760843692	3.021911e+02
591.999326356121969	3.021749e+02
593.001460436203502	3.021572e+02
594.00049565475922	3.021376e+02
594.999733207308168	3.021156e+02
596.000253091980198	3.020889e+02
597.000351046641072	3.020601e+02
598.000257542901181	3.020321e+02
599.001661711615839	3.020078e+02
599.999864907297592	3.019886e+02
601.000355570894385	3.019724e+02
601.999901114433897	3.019559e+02
603.001748077746015	3.019379e+02
603.999783225016017	3.019198e+02
605.000396572526597	3.019037e+02
606.000659549713646	3.018907e+02
607.000735158282623	3.018804e+02
608.000707692143465	3.018718e+02
609.000722624585251	3.018632e+02
610.000946645008298	3.018528e+02
611.001438934872795	3.018395e+02
611.999034913686387	3.018233e+02
612.999928932948592	3.018069e+02
614.000858894506223	3.017924e+02
615.001780627096196	3.017842e+02
615.99969529464272	3.017835e+02
617.000900144113189	3.017903e+02
617.999359399228979	3.018015e+02
619.001647992486369	3.018140e+02
620.001432396962741	3.018270e+02
621.001757831207783	3.018409e+02
621.999535126592718	3.018558e+02
623.000960839590221	3.018718e+02
623.999627141837095	3.018875e+02
625.001589915002	3.019016e+02
626.000275883802601	3.019146e+02
627.001675891415744	3.019273e+02
627.999454313305932	3.019399e+02
628.99984406045121	3.019536e+02
629.999753031767	3.019689e+02
630.999316260655974	3.019853e+02
632.001791511955616	3.020030e+02
633.001023544199938	3.020221e+02
634.000180100877742	3.020413e+02
634.999319451118822	3.020596e+02
636.001497486635571	3.020760e+02
637.000417605508005	3.020893e+02
637.999138921041435	3.020996e+02
639.000591910689423	3.021080e+02
640.00155411772414	3.021152e+02
641.002019113990173	3.021215e+02
642.001910615068823	3.021277e+02
643.001149433310616	3.021339e+02
643.999804504790632	3.021406e+02
645.001161915090279	3.021482e+02
645.998998392091266	3.021569e+02
646.99948073453686	3.021654e+02
647.999627693016805	3.021725e+02
648.99950003016022	3.021779e+02
650.00207583847407	3.021815e+02
651.001187446088807	3.021842e+02
652.000147669389889	3.021874e+02
652.99907746042436	3.021919e+02
654.001229063962228	3.021983e+02
655.000665414300215	3.022063e+02
656.000669192187843	3.022143e+02
657.00113206217452	3.022201e+02
658.001870299401276	3.022227e+02
658.99976286839933	3.022242e+02
660.001123239710864	3.022292e+02
660.99983115586906	3.022416e+02
661.999205817041229	3.022607e+02
662.999614197249571	3.022832e+02
664.001321893282352	3.023057e+02
665.001178195524858	3.023258e+02
666.001852732852399	3.023407e+02
666.999904628775084	3.023485e+02
668.001415990190367	3.023523e+02
668.99994497916714	3.023588e+02
670.00175349494782	3.023729e+02
671.000772420225189	3.023946e+02
672.000390108244233	3.024205e+02
673.000696279357612	3.024452e+02
674.001571057548631	3.024636e+02
674.99942020794083	3.024714e+02
676.000067468097427	3.024692e+02
676.999968402234799	3.024629e+02
678.002100263684497	3.024603e+02
679.000586311634379	3.024678e+02
679.999128024209881	3.024871e+02
681.001266685374389	3.025133e+02
682.000953549017709	3.025366e+02
683.001283120124299	3.025490e+02
684.001814695783537	3.025481e+02
685.001826125308753	3.025398e+02
686.000814658253262	3.025320e+02
687.001865305472961	3.025317e+02
687.998995046222603	3.025440e+02
688.999045598056682	3.025680e+02
689.999531337079361	3.025978e+02
691.000880372279312	3.026261e+02
691.999879643961094	3.026459e+02
692.999165967644785	3.026516e+02
694.001162053991152	3.026428e+02
694.999047982081152	3.026282e+02
696.001930681600811	3.026217e+02
697.000783040341162	3.026291e+02
697.999645916309646	3.026509e+02
698.99925485450683	3.026829e+02
699.99978755121731	3.027141e+02
701.001096396081607	3.027305e+02
701.999834325267898	3.027263e+02
703.001403521018347	3.027077e+02
704.001887470741963	3.026883e+02
705.001276591769056	3.026799e+02
705.999972461330685	3.026894e+02
707.001913105478934	3.027176e+02
708.001389871963625	3.027544e+02
709.001697313820046	3.027852e+02
709.999537691754654	3.027993e+02
711.000850185080481	3.027952e+02
712.002008843104818	3.027809e+02
712.999186228311146	3.027703e+02
714.001729432432739	3.027727e+02
715.000633835483882	3.027897e+02
715.999696226356377	3.028169e+02
716.999376891221686	3.028481e+02
717.999861148798118	3.028749e+02
719.00097677208646	3.028872e+02
719.999305635462292	3.028806e+02
721.000479458300219	3.028612e+02
722.000701366818703	3.028437e+02
722.999869218035428	3.028397e+02
724.00138372234494	3.028514e+02
724.999767425475056	3.028751e+02
726.001942283557469	3.029040e+02
727.001871003170891	3.029290e+02
727.99946709145263	3.029416e+02
729.000831323842135	3.029374e+02
730.002012755140981	3.029194e+02
730.999188341424201	3.029008e+02
732.001476696992086	3.028949e+02
732.99968593449421	3.029057e+02
734.000758065884384	3.029299e+02
734.999273990877555	3.029610e+02
736.001836492943767	3.029906e+02
736.999051112165034	3.030090e+02
738.000185089695947	3.030101e+02
739.00127701195197	3.029944e+02
740.001377486333809	3.029736e+02
741.000217489742454	3.029630e+02
742.000985673950936	3.029693e+02
743.001266932093927	3.029907e+02
744.00202616504157	3.030216e+02
745.000696392117561	3.030527e+02
746.000450523501058	3.030740e+02
747.001204788362088	3.030770e+02
747.999196241928985	3.030602e+02
748.999523899999303	3.030345e+02
750.001718511049376	3.030174e+02
750.999488534087163	3.030187e+02
751.999657812630517	3.030381e+02
753.000128503211045	3.030699e+02
754.001600424536264	3.031047e+02
755.001139048495133	3.031309e+02
756.001727517501195	3.031391e+02
756.999920185353517	3.031269e+02
758.00082217122565	3.031027e+02
759.000540439904626	3.030844e+02
759.999042282794903	3.030836e+02
760.9997681284907	3.031008e+02
762.000569911790194	3.031301e+02
762.999139784042541	3.031632e+02
764.002059298104541	3.031906e+02
764.999863680141516	3.032029e+02
766.001678241914192	3.031948e+02
767.000508671976831	3.031703e+02
768.001476819942923	3.031456e+02
769.001106829558012	3.031362e+02
769.999609053299764	3.031459e+02
771.000792876260789	3.031697e+02
771.999415202751493	3.031995e+02
772.999117916363048	3.032269e+02
774.000037727718791	3.032436e+02
775.002077766903881	3.032429e+02
776.001541223744994	3.032238e+02
777.000463989229843	3.031971e+02
778.001231460210306	3.031797e+02
779.00057002876747	3.031818e+02
779.999013352597785	3.032011e+02
781.000592081468653	3.032300e+02
781.999902847600765	3.032598e+02
783.000395173523316	3.032825e+02
783.999071536200177	3.032908e+02
785.001760517844218	3.032812e+02
786.001225989212458	3.032582e+02
786.999749246542365	3.032355e+02
787.999846454190788	3.032268e+02
789.00172608789353	3.032371e+02
789.999848676603051	3.032614e+02
791.001369069047087	3.032910e+02
792.000797104098069	3.033176e+02
793.001533235433499	3.033344e+02
794.000346759655713	3.033366e+02
794.999651751660622	3.033238e+02
796.001678147282405	3.033032e+02
796.999348566033746	3.032865e+02
798.001688249018912	3.032841e+02
798.99979358108294	3.032991e+02
800.000609091565025	3.033260e+02
801.001822270624189	3.033554e+02
802.00098159944298	3.033793e+02
803.001437787280338	3.033926e+02
803.999859626126408	3.033930e+02
805.001728894325765	3.033812e+02
805.999957245814585	3.033646e+02
807.000067219875177	3.033542e+02
808.00177922847331	3.033578e+02
808.999461499274844	3.033761e+02
810.000075413405739	3.034031e+02
811.001199879824981	3.034311e+02
812.000260697295516	3.034527e+02
813.000611991573692	3.034637e+02
814.001952366018486	3.034628e+02
815.000296836709254	3.034516e+02
816.001156357916898	3.034371e+02
817.00078056041707	3.034293e+02
818.002097106292581	3.034352e+02
818.999512167710009	3.034539e+02
819.999961101691497	3.034792e+02
821.00102089216864	3.035039e+02
822.000030884046168	3.035221e+02
823.000281205565784	3.035300e+02
824.001481573743831	3.035273e+02
824.999674140777643	3.035158e+02
826.000379369529355	3.035027e+02
826.999885594676925	3.034967e+02
828.001218809913212	3.035033e+02
829.0018963193329	3.035214e+02
829.999448946838015	3.035448e+02
831.000788182382394	3.035673e+02
832.000060449224179	3.035833e+02
833.000643739062525	3.035901e+02
833.999084985674244	3.035869e+02
835.00072323757081	3.035753e+02
836.001731800979314	3.035624e+02
837.001531997595066	3.035568e+02
838.000038783393279	3.035633e+02
839.001010561636349	3.035806e+02
840.002048142111676	3.036029e+02
841.000663323936806	3.036232e+02
842.0004422594277	3.036364e+02
843.001537343738619	3.036403e+02
844.000311380963694	3.036349e+02
844.999178252164597	3.036222e+02
846.000525480030092	3.036098e+02
847.000709554504851	3.036055e+02
847.999689884430495	3.036123e+02
849.001089509678764	3.036281e+02
849.999461272680378	3.036478e+02
851.001632616303027	3.036660e+02
852.001755847414529	3.036780e+02
852.999844877284545	3.036809e+02
854.001662115707632	3.036749e+02
855.00030286350318	3.036634e+02
856.001403947406743	3.036544e+02
857.001493289977361	3.036545e+02
858.000623439447054	3.036641e+02
858.99913350127872	3.036797e+02
860.000782973345849	3.036967e+02
860.999904201259938	3.037113e+02
861.999842007938014	3.037208e+02
863.000539285025525	3.037238e+02
864.001606469995977	3.037207e+02
864.999431374052392	3.037139e+02
865.999824430706667	3.037096e+02
866.999393347113369	3.037114e+02
868.0012989417055	3.037199e+02
868.999556166626007	3.037331e+02
870.000945814165902	3.037481e+02
870.999572190963477	3.037616e+02
872.001850746301443	3.037710e+02
873.001497160028066	3.037753e+02
874.001370034038359	3.037763e+02
875.001133489367703	3.037762e+02
876.000514520152592	3.037772e+02
876.999368941381931	3.037815e+02
878.00085374195055	3.037902e+02
879.002055715393567	3.038017e+02
880.000135212627129	3.038140e+02
881.001556260444886	3.038252e+02
882.000183819714607	3.038337e+02
882.999135140663498	3.038389e+02
884.001397567665094	3.038416e+02
885.000490215895525	3.038436e+02
885.999344853481944	3.038465e+02
887.001007747145763	3.038516e+02
887.99926241025878	3.038590e+02
889.000460430645262	3.038681e+02
890.001675870817053	3.038775e+02
891.000007921195674	3.038865e+02
892.00183571243781	3.038941e+02
893.000942325425967	3.038995e+02
894.000364112598277	3.039028e+02
894.999918404362688	3.039046e+02
895.999388923933452	3.039062e+02
897.001742773194792	3.039093e+02
898.000710303826509	3.039147e+02
898.999506168473545	3.039223e+02
900.001434492960243	3.039312e+02
901.000455037418305	3.039398e+02
901.999825103355079	3.039469e+02
902.999575167895728	3.039516e+02
903.999640108101971	3.039541e+02
904.999875610815479	3.039552e+02
906.0001128496815	3.039564e+02
907.000216115327135	3.039588e+02
908.000134856734803	3.039629e+02
908.999914369172984	3.039685e+02
909.999668616298777	3.039750e+02
910.999532156520445	3.039815e+02
911.999617301205262	3.039870e+02
912.999972428261231	3.039912e+02
914.000564209388244	3.039940e+02