# Probe 0 (1.8 2.12 1.42)
# Probe 1 (4.8 1.65 1.5)
# Probe 2 (2.5 2.09 0.95)
# Probe 3 (2.8 0.65 0.75)
#       Probe             0             1             2             3
#        Time
     0.999427        303.15        303.15        303.15        303.15
      2.00049        303.15       303.149        303.15        303.15
      3.00031        303.15       303.149        303.15        303.15
      3.99973        303.15        303.15        303.15        303.15
      4.99982        303.15        303.15        303.15        303.15
      6.00096        303.15        303.15        303.15        303.15
      7.00036        303.15        303.15        303.15        303.15
      8.00025        303.15        303.15        303.15        303.15
      8.99988        303.15        303.15        303.15       303.149
      10.0011        303.15        303.15        303.15       303.116
      11.0007        303.15        303.15       303.149       303.102
      12.0012       303.148       303.156       303.126       303.121
      12.9996       303.141       303.169       302.958       303.117
      14.0015       303.133       303.185       302.634       303.072
      15.0019       303.126         303.2       302.403       303.007
      15.9999       303.113       303.207       302.389        303.01
      17.0002       303.078       303.205        302.52       303.069
      18.0019       303.064       303.199       302.648       303.101
      19.0015       303.084       303.186       302.746       303.098
      20.0008       303.099       303.167       302.847       303.085
      20.9999       303.104       303.148       302.941       303.077
      22.0004         303.1       303.135        303.01       303.079
      23.0019       303.084       303.134       303.053       303.091
      24.0012       303.055       303.143        303.08       303.109
       25.001       303.019       303.162       303.097       303.131
      26.0015       302.986       303.187       303.106       303.154
           27       302.964       303.216       303.112       303.178
      28.0002       302.946       303.246       303.117         303.2
       29.002       302.925       303.276       303.122       303.221
      30.0019       302.895       303.307       303.127       303.242
      30.9994       302.857        303.34       303.134       303.263
      31.9999       302.815       303.374       303.141       303.283
      33.0001       302.777       303.408       303.148       303.303
      33.9999        302.75       303.441       303.155       303.322
      34.9999        302.74       303.476        303.16       303.341
      36.0006       302.748        303.51       303.165       303.361
      36.9996       302.774       303.544       303.167       303.382
      38.0003       302.817       303.577       303.167       303.404
      39.0021       302.877       303.608       303.165       303.427
      40.0013       302.953       303.634       303.163       303.452
      41.0004       303.033       303.656       303.163       303.478
      41.9994       303.108       303.672       303.169       303.506
      43.0013        303.17       303.683       303.181       303.532
      44.0006       303.214        303.69       303.198       303.557
      45.0012       303.245       303.694       303.221       303.581
      46.0009       303.268       303.697       303.246       303.603
           47       303.285       303.702       303.273       303.624
      48.0019       303.298       303.712       303.301       303.644
      48.9997       303.306       303.728       303.329       303.665
      50.0022        303.31       303.748       303.357       303.684
      50.9998       303.313       303.769       303.383       303.704
      52.0016       303.319       303.791       303.408       303.722
      53.0015       303.331       303.814       303.431        303.74
      53.9994       303.349       303.838       303.452       303.758
      55.0015       303.372       303.863       303.472       303.777
      56.0015       303.398       303.889       303.492       303.796
      56.9993       303.427       303.915       303.511       303.818
      58.0006       303.458       303.943       303.529       303.841
      59.0016       303.489        303.97       303.548       303.866
      60.0019       303.522       303.998       303.565       303.894
       61.001       303.556       304.026       303.582       303.923
      62.0017        303.59       304.054       303.598       303.953
      63.0009       303.623       304.082       303.613       303.983
      64.0016       303.655        304.11       303.629       304.012
       65.001       303.685       304.138       303.646        304.04
      65.9992       303.714       304.165       303.663       304.068
      66.9993       303.741       304.193       303.681       304.095
      68.0016       303.765        304.22         303.7       304.121
      69.0002       303.788       304.247       303.719       304.146
      70.0013       303.809       304.273       303.739       304.171
      70.9993       303.828       304.298       303.758       304.195
      72.0005       303.847       304.321       303.779       304.218
      72.9992       303.865       304.343       303.802        304.24
      74.0015        303.88       304.365       303.828        304.26
      75.0014       303.894       304.384       303.855       304.278
      76.0021       303.906       304.403       303.876       304.293
      77.0005       303.916        304.42        303.89       304.307
      78.0021       303.925       304.438         303.9       304.319
           79       303.934       304.454       303.909       304.331
      80.0003       303.944        304.47       303.921       304.341
      80.9999       303.953       304.484       303.934        304.35
      82.0016       303.964       304.498       303.949       304.357
      83.0022       303.975       304.512       303.963       304.364
      84.0015       303.987       304.527       303.976       304.374
      84.9994       303.999       304.541       303.989       304.387
      86.0018       304.011       304.555       304.002       304.402
      86.9993       304.024        304.57       304.015        304.42
      88.0009       304.036       304.583       304.029       304.436
      89.0007       304.048       304.598       304.044       304.452
      89.9993       304.061       304.611        304.06       304.467
      90.9999       304.073       304.624       304.077       304.484
           92       304.084       304.636       304.095       304.499
      92.9998       304.096       304.649       304.113       304.514
      93.9995       304.107        304.66       304.132       304.527
      94.9994       304.118       304.671       304.151       304.539
      95.9994       304.128        304.68        304.17       304.551
      96.9998       304.138        304.69       304.189       304.562
      98.0003       304.148       304.699       304.207       304.572
      99.0011       304.158       304.707       304.225       304.582
      99.9992       304.168       304.716       304.242       304.591
          101       304.178       304.724       304.258       304.598
      102.002       304.188       304.732       304.273       304.606
          103       304.198        304.74       304.286       304.612
      104.002       304.208       304.749       304.299       304.618
          105       304.218       304.757        304.31       304.623
      106.002       304.228       304.766       304.321       304.628
          107       304.238       304.774       304.331       304.631
      108.001       304.247       304.782       304.341       304.635
      109.001       304.257       304.792       304.351       304.638
      110.002       304.266       304.801       304.361        304.64
      111.002       304.275       304.811       304.372       304.642
      112.002       304.284       304.818       304.382       304.642
      113.002       304.292       304.826       304.392       304.642
      114.001         304.3       304.832       304.402       304.641
          115       304.307       304.838       304.412       304.641
      116.002       304.314       304.842       304.422        304.64
      117.001       304.321       304.846       304.431        304.64
      118.002       304.327       304.848       304.441       304.639
          119       304.332       304.851       304.449       304.638
      120.001       304.335       304.853       304.458       304.636
      121.001       304.336       304.856       304.465       304.634
      122.001       304.335       304.858       304.472       304.631
          123       304.331       304.861        304.48       304.626
          124       304.324       304.862        304.49       304.619
      125.002       304.315       304.864       304.502       304.613
      126.001       304.302       304.865        304.52       304.606
      127.001       304.287       304.868       304.542       304.598
      128.002       304.272       304.869        304.57       304.588
      129.001       304.257       304.871       304.603       304.576
          130       304.245       304.872       304.641       304.563
      131.002       304.236       304.872       304.682        304.55
      132.001       304.231       304.873       304.723       304.537
      133.002        304.23       304.875       304.762       304.525
      133.999       304.232       304.879       304.796       304.512
      134.999       304.236       304.884       304.824       304.499
      136.002        304.24       304.888       304.847       304.486
      137.001       304.245       304.892       304.866       304.473
      138.001       304.251       304.894        304.88       304.462
          139       304.257       304.895       304.889       304.451
          140       304.265       304.895       304.893       304.441
      141.002       304.274       304.894       304.892        304.43
      142.001       304.283       304.894       304.886       304.418
      143.002       304.291       304.895       304.877       304.406
          144       304.298       304.899       304.868       304.394
      145.002       304.302       304.904       304.861       304.381
      146.002       304.303        304.91        304.86       304.367
      147.002       304.302       304.915       304.868       304.354
      147.999       304.299       304.921       304.883       304.344
      149.001       304.295       304.927       304.905       304.337
      150.002       304.289       304.931       304.936       304.332
      151.001       304.283       304.934       304.976       304.329
          152       304.277       304.936       305.023        304.33
          153       304.271       304.938       305.078       304.336
      154.001       304.266       304.941       305.131       304.339
      155.002       304.262       304.945       305.173       304.325
          156       304.261       304.946       305.197       304.289
      157.001       304.262       304.943       305.203       304.244
          158       304.264        304.94       305.195       304.225
      159.001       304.268       304.939       305.184       304.242
          160       304.273       304.942       305.178       304.265
      161.002        304.28       304.947       305.175       304.261
      162.001       304.287       304.949       305.176       304.225
      163.001       304.293       304.946        305.18       304.176
      164.001         304.3        304.94       305.189       304.135
          165       304.309       304.932       305.202       304.102
      166.002       304.319       304.921       305.215       304.052
      166.999        304.33       304.907       305.225       303.971
          168       304.342       304.889       305.232       303.874
          169       304.353        304.87       305.237       303.798
      170.001        304.36       304.855       305.243       303.757
      171.001       304.362       304.844        305.25       303.727
          172       304.357       304.839       305.254       303.677
      173.002       304.347       304.838       305.256       303.604
      174.002       304.332        304.84       305.257       303.528
      175.002       304.317       304.845       305.254        303.46
      176.001       304.305       304.851       305.237       303.395
          177       304.295       304.859       305.196       303.338
      178.002       304.288       304.865       305.127       303.307
      179.002       304.282       304.871       305.036         303.3
      180.002       304.277       304.878       304.937       303.299
      181.001       304.271       304.882       304.849       303.286
      182.001       304.265        304.88       304.786       303.258
      183.002       304.258       304.876       304.754       303.219
      184.001       304.251        304.87       304.745       303.181
      185.001       304.244       304.868        304.75       303.153
          186       304.235       304.868       304.762       303.139
          187       304.225       304.872       304.778        303.13
      187.999       304.214       304.881       304.785       303.122
      189.002       304.204       304.893       304.771       303.117
      190.001       304.195       304.905       304.749       303.119
      190.999       304.186       304.919       304.719       303.131
      191.999       304.174       304.934       304.663        303.15
      193.001       304.155       304.948       304.562       303.166
      194.001       304.126       304.961       304.437       303.166
      194.999       304.084       304.973       304.415       303.142
      196.002        304.04        304.98        304.44       303.108
          197       304.013       304.979       304.453       303.084
      198.001       304.006       304.973       304.504       303.065
      199.001       304.011       304.963       304.573       303.038
      200.002       304.022       304.948       304.612       303.008
      201.001       304.034       304.931       304.608       302.984
          202       304.043       304.919       304.544       302.971
          203       304.048       304.913       304.373       302.983
      204.001       304.048       304.913       304.136       303.023
          205       304.044       304.916        303.96       303.076
          206        304.04       304.921        303.88       303.122
      207.002       304.034       304.924       303.828       303.157
      207.999       304.027       304.923       303.788       303.186
          209       304.018       304.918       303.788       303.216
      210.001       304.008       304.918        303.78       303.247
      211.001       303.997       304.918       303.738       303.277
      212.002       303.988       304.922       303.683         303.3
      213.002       303.983       304.929       303.607       303.313
      214.002       303.986       304.937       303.514       303.315
      215.001       303.997       304.946        303.44       303.308
          216       304.018       304.953       303.406        303.29
      217.001       304.045       304.963       303.392       303.263
      218.001       304.073        304.97       303.385        303.23
      219.001         304.1       304.974       303.401       303.194
          220       304.122       304.981       303.424        303.16
      221.001       304.139       304.986       303.434       303.127
          222        304.15       304.992       303.457       303.093
          223       304.155       304.994       303.507       303.054
          224       304.153       304.995       303.562       303.014
          225       304.141       304.995       303.621       302.977
          226       304.119       304.992       303.698       302.943
      227.001       304.091       304.991       303.774       302.908
      228.001       304.061       304.986       303.831       302.869
      229.001       304.032       304.983       303.877       302.829
      230.001       304.005       304.978        303.91       302.785
      231.001       303.982       304.975       303.926       302.742
          232       303.964       304.972       303.936       302.703
      233.001        303.95        304.97        303.95        302.67
      234.001       303.939       304.972        303.97       302.643
          235        303.93       304.973       303.997       302.622
      236.002       303.924       304.976       304.032       302.603
      236.999        303.92       304.977       304.076       302.587
      238.001       303.917       304.981       304.123       302.573
      239.001       303.914       304.984        304.17       302.562
      240.002       303.913       304.987       304.216       302.549
      241.002       303.913       304.991       304.263       302.536
          242       303.913       304.991       304.319       302.524
          243       303.916       304.987       304.389       302.513
      243.999       303.923       304.979       304.473       302.502
      245.001       303.937       304.966       304.555       302.494
      246.001       303.956       304.949       304.613       302.492
      247.001       303.984       304.931       304.633        302.49
          248        304.02       304.916       304.611       302.485
          249       304.065       304.906       304.543       302.483
      250.001       304.117       304.902       304.443       302.489
          251       304.172       304.902       304.326       302.498
          252       304.228       304.908       304.221       302.511
          253        304.28        304.92       304.138       302.533
          254       304.325       304.933       304.064       302.566
      255.002       304.359       304.944       303.987       302.601
      256.001       304.378       304.953       303.912       302.626
      257.001       304.382       304.964       303.843       302.639
      258.001       304.367       304.973       303.783       302.647
          259       304.335       304.977       303.735       302.655
          260       304.286       304.974         303.7       302.658
      261.001       304.223       304.968       303.689       302.648
          262       304.155       304.961       303.721       302.631
      263.002       304.089       304.947       303.831       302.614
      264.001       304.033       304.927       304.056       302.593
      265.001       303.986        304.91       304.432       302.568
      266.001        303.95       304.902        304.85       302.558
      266.999       303.924       304.899       304.999       302.582
      268.001       303.909       304.895       304.843       302.628
      269.001       303.902       304.894       304.648        302.67
      270.002       303.896       304.897       304.532       302.701
      271.001       303.888       304.908        304.33       302.737
          272       303.877       304.927       303.928       302.784
          273       303.864       304.957       303.548       302.827
      274.001       303.852       304.993        303.32        302.85
      275.002       303.846       305.027       303.219       302.853
      276.001       303.846       305.055       303.205       302.837
      277.001       303.846        305.08       303.267       302.797
      278.002        303.84       305.095       303.413       302.745
      279.002       303.827       305.104       303.604       302.696
      279.999       303.809       305.109       303.778       302.654
          281       303.788       305.111        303.93       302.625
      282.001       303.771       305.108       304.047       302.615
      283.001        303.76       305.101       304.131       302.613
      284.001       303.757       305.094       304.203       302.612
      284.999       303.761       305.089       304.249       302.618
      286.001        303.77       305.083       304.256       302.633
      287.001       303.781       305.077       304.239       302.646
          288       303.793       305.074       304.221       302.657
          289       303.803       305.072       304.194       302.676
      289.999       303.813        305.07       304.151       302.708
      291.001       303.821       305.068       304.115       302.742
      291.999       303.828       305.071       304.105       302.776
      293.002       303.833       305.077       304.089       302.809
      294.001       303.836       305.081       304.064       302.836
          295       303.837       305.083       304.081       302.851
      296.001       303.837       305.085       304.141       302.851
      297.001       303.834       305.087       304.159       302.839
          298        303.83       305.086       304.126       302.818
      299.002       303.825        305.08       304.122       302.788
      300.001       303.819       305.075        304.12       302.753
          301        303.81       305.072       304.028       302.726
          302       303.797       305.066       303.881       302.713
      303.001       303.783       305.062       303.771       302.705
      303.999       303.768       305.061       303.672       302.698
      304.999       303.754       305.057       303.568         302.7
      306.001       303.744       305.054       303.503       302.707
      307.001        303.74       305.054       303.464       302.712
      308.001       303.741       305.056       303.436       302.718
      309.001       303.747       305.053       303.454       302.733
          310       303.758       305.053       303.496       302.754
      310.999        303.77       305.058       303.491       302.775
      311.999        303.78       305.059       303.487       302.797
      313.001       303.788       305.058        303.53       302.825
          314       303.795       305.061       303.551       302.851
      315.001       303.799       305.064       303.535       302.873
      316.001       303.798       305.066        303.53        302.89
      317.001       303.794       305.069        303.52       302.902
          318       303.786       305.072       303.486       302.909
          319       303.775       305.076       303.458       302.912
      320.002       303.763        305.08       303.438       302.913
      321.001        303.75       305.084       303.411       302.913
      322.002       303.736       305.088       303.391       302.913
          323       303.724       305.091       303.389       302.912
      324.001       303.713       305.095       303.394       302.912
      325.002       303.702       305.097       303.402       302.913
      325.999       303.694         305.1       303.418       302.914
          327       303.687       305.102       303.447       302.914
          328       303.681       305.103       303.485       302.914
      329.001       303.678       305.104       303.531       302.912
      329.999       303.677       305.104       303.578       302.909
      331.001       303.677       305.103       303.625       302.905
      332.001       303.679       305.102       303.669         302.9
      333.001       303.682         305.1       303.712       302.894
      334.002       303.686       305.097       303.749       302.888
          335       303.691       305.093       303.779       302.882
          336       303.697       305.089         303.8       302.875
          337       303.705       305.085       303.813        302.87
          338       303.714       305.081       303.812       302.866
      339.001       303.723       305.077       303.798       302.864
          340       303.734       305.074       303.774       302.865
      341.001       303.748       305.072       303.745       302.867
          342       303.764       305.072       303.713       302.871
      342.999       303.784       305.072       303.679       302.877
      344.002       303.808       305.073       303.647       302.885
      345.001       303.834       305.075       303.617       302.893
      346.001       303.863       305.078       303.585       302.903
      347.002       303.893       305.082       303.555       302.912
      347.999       303.923       305.087       303.529       302.922
          349       303.952       305.093       303.508       302.931
      350.001       303.979         305.1        303.49       302.939
      350.999       304.004       305.108        303.48       302.945
      352.001       304.024       305.115       303.477       302.949
      353.002       304.042       305.124        303.48       302.951
      354.001       304.055       305.129       303.485       302.951
      355.002       304.066       305.141       303.493        302.95
      356.001       304.073        305.15       303.508       302.949
      357.002       304.078       305.154       303.527       302.948
          358       304.081       305.165       303.541       302.948
      359.001       304.082       305.172       303.555        302.95
          360       304.082       305.174       303.566       302.954
      361.001       304.082       305.184        303.57       302.959
      362.002       304.082       305.189       303.572       302.966
      362.999       304.083        305.19       303.575       302.975
          364       304.084       305.202       303.572       302.986
          365       304.086       305.207       303.564       302.998
      366.001        304.09       305.209       303.556       303.012
      367.001       304.094       305.222        303.55       303.026
          368         304.1       305.231       303.545       303.039
          369       304.107       305.234       303.544       303.051
      369.999       304.114       305.248       303.549        303.06
      371.002       304.121        305.26       303.558       303.066
      372.001       304.127       305.264       303.573       303.072
      372.999       304.132       305.275       303.594       303.076
      374.002       304.135       305.286       303.616       303.078
          375       304.136       305.289       303.634       303.077
      375.999       304.135       305.296       303.656       303.073
      377.001       304.132       305.305       303.681       303.069
      378.001       304.126       305.304       303.699       303.063
          379       304.119       305.307       303.712       303.058
      380.002       304.111       305.312       303.724       303.054
      381.001       304.102       305.311       303.734        303.05
      382.001       304.092       305.311       303.736       303.048
          383       304.083       305.316       303.737       303.049
      384.002       304.076       305.314       303.739       303.054
      385.001       304.072       305.315       303.732        303.06
          386       304.069        305.32       303.724       303.068
          387        304.07       305.319       303.727       303.077
      387.999       304.074       305.319       303.729       303.086
      389.002        304.08       305.324       303.722       303.095
      390.001       304.088       305.323       303.716       303.105
      391.001       304.097       305.323       303.707       303.114
      392.001       304.107       305.327       303.687        303.12
      393.001       304.116       305.327       303.661       303.123
      394.001       304.124       305.326       303.638       303.125
      395.001       304.131       305.333       303.611       303.124
      396.001       304.135       305.335        303.58       303.121
      397.001       304.139       305.334       303.545       303.117
          398        304.14       305.344       303.518       303.112
      398.999       304.141       305.351       303.492       303.107
      400.001        304.14       305.349       303.475       303.103
      401.002       304.138       305.355       303.472         303.1
          402       304.137       305.365       303.475       303.098
      403.001       304.137       305.364       303.481       303.098
      404.001       304.137       305.367       303.496       303.101
      405.001       304.139       305.376       303.519       303.105
      406.001       304.141       305.379       303.543       303.112
          407       304.145       305.379        303.57        303.12
      408.003       304.149       305.387       303.596        303.13
      409.002       304.154       305.391       303.615        303.14
      410.002       304.159       305.387        303.63       303.151
      411.001       304.165       305.393       303.642        303.16
      412.001        304.17       305.399       303.649       303.169
      413.001       304.176       305.396       303.654       303.176
      414.001       304.181       305.398       303.657       303.184
      415.001       304.186       305.405       303.659        303.19
      416.001       304.191       305.404       303.658       303.197
      417.001       304.195       305.403       303.657       303.202
      418.002       304.199       305.411       303.657       303.206
      419.003       304.202       305.412       303.656       303.209
          420       304.204        305.41       303.653        303.21
      421.001       304.206       305.416       303.653        303.21
      422.003       304.206       305.419       303.653       303.208
      423.001       304.207       305.416       303.651       303.206
      424.003       304.206       305.419       303.647       303.203
      425.001       304.205       305.424       303.644       303.199