# Region type : patch node2U_0_Inlet_0
#   Faces  : 148
#   Area   : 1.734668e-02
#        Time	areaAverage(T)
     0.999427	3.031500e+02
      2.00049	3.031500e+02
      3.00031	3.031500e+02
      3.99973	3.031500e+02
      4.99982	3.031500e+02
      6.00096	3.031500e+02
      7.00036	3.031500e+02
      8.00025	3.031500e+02
      8.99988	3.031499e+02
    10.001085	3.031498e+02
    11.000692	3.031498e+02
     12.00119	3.031498e+02
    12.999644	3.031497e+02
    14.001532	3.031470e+02
  15.00188072	3.031306e+02
   15.9998521	3.030998e+02
   17.0001205	3.030802e+02
  18.00184366	3.030753e+02
  19.00135292	3.030723e+02
20.0005918367	3.030704e+02
20.9995397477	3.030736e+02
21.9999156912	3.030832e+02
23.0012895724	3.030974e+02
24.0003674065	3.031149e+02
24.999948250121	3.031338e+02
26.00012718715	3.031522e+02
27.001466255274	3.031695e+02
28.001372738785	3.031853e+02
28.999803564599	3.031995e+02
29.99944846361592	3.032120e+02
30.99971416792314	3.032234e+02
32.00002912117819	3.032326e+02
33.00002149424799	3.032388e+02
33.99970206366805	3.032411e+02
34.9994888382346261	3.032399e+02
35.9999994558824383	3.032378e+02
37.0018773517030652	3.032380e+02
37.9993327402738146	3.032422e+02
39.0009885870554669	3.032509e+02
40.0002845332203236	3.032631e+02
40.9996805758456162	3.032776e+02
42.0019339552180782	3.032931e+02
43.0010232609226932	3.033088e+02
44.0005018845220803	3.033251e+02
45.0012162640623004	3.033426e+02
46.0009897343283143	3.033614e+02
47.0001790180785832	3.033810e+02
48.0019790073555228	3.034011e+02
49.0000584196574067	3.034215e+02
49.99984640599709	3.034426e+02
51.0010593187341854	3.034650e+02
52.0004180581424436	3.034885e+02
53.0008190993681012	3.035131e+02
54.0021485675883568	3.035386e+02
55.0012784264610133	3.035646e+02
56.0011429314178599	3.035912e+02
57.0014168342299001	3.036184e+02
58.0016594690532585	3.036462e+02
59.0014252797878527	3.036745e+02
60.0003136205778702	3.037034e+02
61.001080701931528	3.037329e+02
62.0005213957178398	3.037633e+02
63.0017127486690711	3.037951e+02
64.0016381064634032	3.038288e+02
65.0003564232315227	3.038656e+02
66.0009652294406806	3.039075e+02
67.000476202615431	3.039557e+02
68.0021661056567268	3.040088e+02
69.0001959701988312	3.040583e+02
70.0010694597687575	3.040918e+02
71.0021316117222483	3.041052e+02
72.0007430364561145	3.041091e+02
73.0000455564489101	3.041144e+02
73.999146034110737	3.041244e+02
75.0001908883456707	3.041383e+02
76.0000436667727399	3.041547e+02
77.0021181459045749	3.041719e+02
78.0004897354505715	3.041884e+02
79.0011776452807766	3.042035e+02
80.0009982307494028	3.042171e+02
80.9996232330824171	3.042299e+02
81.9996276593333704	3.042426e+02
83.0009750325997544	3.042561e+02
84.0008352671088261	3.042709e+02
84.9992419303420519	3.042873e+02
85.9993964425957387	3.043055e+02
87.0014720423878032	3.043254e+02
87.9997298245688313	3.043469e+02
89.0003484943188425	3.043697e+02
90.0005423987294648	3.043935e+02
91.0004968721107588	3.044180e+02
92.000382664378634	3.044427e+02
93.000356927783514	3.044671e+02
94.0005807605929675	3.044908e+02
95.0011367318341229	3.045136e+02
96.0020523391495288	3.045350e+02
97.0004307343019576	3.045549e+02
97.999275122197929	3.045734e+02
99.0016598410722963	3.045908e+02
100.001521898879105	3.046076e+02
101.001842775653387	3.046243e+02
101.999523135465012	3.046415e+02
103.000503029726275	3.046596e+02
104.001679862132022	3.046787e+02
104.999857805894763	3.046988e+02
106.000872202795492	3.047196e+02
107.001486509367609	3.047408e+02
108.001479109868015	3.047621e+02
109.00067142973127	3.047832e+02
110.001967679187075	3.048046e+02
110.999338175346836	3.048266e+02
112.001879635745823	3.048498e+02
113.000755950322343	3.048746e+02
113.999196023840923	3.049015e+02
115.000607289495932	3.049308e+02
115.999497210627723	3.049622e+02
116.999360063478619	3.049957e+02
118.000766359280746	3.050311e+02
119.001496268604072	3.050677e+02
120.001990101047951	3.051050e+02
121.00182644090529	3.051418e+02
122.000854046904507	3.051777e+02
123.002065354488749	3.052123e+02
123.999340369654362	3.052452e+02
125.001847912576096	3.052769e+02
126.000435933482393	3.053070e+02
127.001187616790503	3.053358e+02
128.000847357581421	3.053632e+02
128.999279135768262	3.053894e+02
129.999440836993756	3.054143e+02
131.001162907742156	3.054382e+02
132.001278854907838	3.054613e+02
132.999635926991147	3.054840e+02
133.999253825556877	3.055067e+02
134.999984368913829	3.055293e+02
136.001610245680666	3.055517e+02
137.000865838881339	3.055736e+02
138.000605996394995	3.055945e+02
139.000687921125973	3.056135e+02
140.001062049305432	3.056302e+02
141.001772434786687	3.056441e+02
141.999684819475334	3.056552e+02
143.00076951814313	3.056640e+02
144.001582419281874	3.056710e+02
145.001922884608661	3.056766e+02
146.001806960798064	3.056808e+02
147.001317076955985	3.056838e+02
148.000446299306844	3.056859e+02
148.999235558215958	3.056871e+02
150.00104183283716	3.056878e+02
150.99991264813724	3.056882e+02
152.002127601530503	3.056884e+02
153.001628798881228	3.056881e+02
154.001746590970328	3.056872e+02
154.999709747561894	3.056854e+02
156.002006771375591	3.056824e+02
156.999195067494696	3.056779e+02
158.000311629687843	3.056715e+02
159.001926903793134	3.056632e+02
160.000758197588766	3.056530e+02
160.999836910799814	3.056408e+02
162.002011478213745	3.056268e+02
163.000698182442534	3.056107e+02
164.00196140524497	3.055931e+02
164.999270966020049	3.055740e+02
166.001633598095708	3.055535e+02
166.999512380859159	3.055332e+02
167.999323773974766	3.055131e+02
169.001498915793974	3.054932e+02
170.000435541774351	3.054735e+02
170.999948073721612	3.054537e+02
172.000766273232841	3.054336e+02
173.000089408640974	3.054118e+02
174.00119358036622	3.053883e+02
175.000836804712264	3.053622e+02
176.001646996434062	3.053324e+02
177.000399718168978	3.052979e+02
178.000167452474699	3.052582e+02
179.000712041583455	3.052137e+02
180.002009763952515	3.051654e+02
181.001096368904427	3.051149e+02
182.001145276918692	3.050633e+02
183.001579431880856	3.050115e+02
184.002070558137973	3.049598e+02
185.001907401764868	3.049092e+02
186.000736843983162	3.048587e+02
187.001861414754302	3.048073e+02
187.999140361200887	3.047547e+02
189.002108023991468	3.047002e+02
190.001167849139222	3.046437e+02
190.999206771037819	3.045853e+02
191.999236538280485	3.045255e+02
193.001459887401296	3.044647e+02
193.999638955872399	3.044050e+02
194.999676149749916	3.043491e+02
196.001397443033738	3.043010e+02
196.9992568405452	3.042638e+02
197.999695664844239	3.042381e+02
198.999889692173866	3.042248e+02
200.00001000946267	3.042244e+02
201.000025721484718	3.042365e+02
202.00090084271659	3.042600e+02
203.000333587842107	3.042915e+02
204.000707768455953	3.043277e+02
205.000291510830607	3.043651e+02
206.001674138252497	3.044013e+02
206.999456790520981	3.044348e+02
208.002129995644935	3.044648e+02
208.999276652179219	3.044901e+02
209.99953652676146	3.045106e+02
210.999456784332978	3.045268e+02
212.001782903633512	3.045398e+02
213.000325330571911	3.045498e+02
214.001476421188244	3.045577e+02
214.999514924187082	3.045643e+02
216.001227605430643	3.045702e+02
217.001851839044264	3.045756e+02
218.000110898020807	3.045807e+02
219.000629554038824	3.045861e+02
220.001296913732972	3.045921e+02
220.999270473629934	3.045983e+02
222.000956823787874	3.046045e+02
222.999937840544902	3.046101e+02
224.001497003018699	3.046147e+02
225.001396826364015	3.046175e+02
226.001828774732815	3.046186e+02
227.001923879091834	3.046180e+02
228.001209942462509	3.046167e+02
228.99940332569372	3.046156e+02
230.002166033701997	3.046154e+02
231.000096727941241	3.046158e+02
231.999178044472188	3.046164e+02
233.002040330756273	3.046164e+02
233.999563427198211	3.046155e+02
235.001633328433627	3.046129e+02
235.999798857902931	3.046081e+02
237.000197452507706	3.046011e+02
237.999656612672823	3.045932e+02
239.001279081014388	3.045862e+02
239.999560521160504	3.045819e+02
241.001686776451493	3.045811e+02
242.000667631852821	3.045833e+02
243.001570019284145	3.045872e+02
244.0003796352037	3.045907e+02
245.001989206129053	3.045927e+02
245.99943725677366	3.045927e+02
247.001334494583602	3.045902e+02
248.001045887583786	3.045840e+02
249.001692673150586	3.045732e+02
250.000044092378573	3.045579e+02
251.001967578495737	3.045409e+02
252.000981866954675	3.045271e+02
253.000313966001272	3.045199e+02
254.000248685661717	3.045188e+02
255.000902406740039	3.045208e+02
256.002153219615309	3.045224e+02
257.000631544372425	3.045218e+02
257.99940337949073	3.045184e+02
259.001574262039924	3.045123e+02
260.000987701928807	3.045044e+02
261.000925684200979	3.044961e+02
262.001569124918944	3.044883e+02
262.999370771059034	3.044818e+02
264.00034752693648	3.044770e+02
265.001715955383133	3.044747e+02
266.000664406796716	3.044758e+02
267.000012753799354	3.044805e+02
267.99910982955663	3.044876e+02
269.000701541105229	3.044965e+02
270.001708483683387	3.045072e+02
270.99951137798314	3.045196e+02
272.000697702657078	3.045332e+02
273.002018579891455	3.045466e+02
274.000205581636123	3.045589e+02
275.001575470153625	3.045701e+02
276.000197594390443	3.045807e+02
276.9992164712869	3.045917e+02
278.001243367150039	3.046030e+02
278.999599529310728	3.046132e+02
280.000333522165079	3.046222e+02
281.000476909040515	3.046302e+02
282.000149995020706	3.046384e+02
283.002197103271499	3.046467e+02
284.000379637292156	3.046540e+02
285.001012203510243	3.046596e+02
286.001076444831654	3.046643e+02
287.000436975189871	3.046687e+02
288.002046501910172	3.046731e+02
288.999824068398652	3.046770e+02
290.000275626230916	3.046805e+02
291.000274269183194	3.046846e+02
291.99955898483347	3.046894e+02
293.001191139576406	3.046949e+02
293.999216408513121	3.047012e+02
295.000071034484961	3.047090e+02
296.000564081584969	3.047185e+02
297.000614504448379	3.047300e+02
298.000349977717917	3.047431e+02
298.999968214517764	3.047579e+02
299.999560088315718	3.047746e+02
301.002195281138484	3.047932e+02
302.001675707413995	3.048131e+02
303.001138090472352	3.048340e+02
304.000799282258299	3.048556e+02
305.000926932348818	3.048778e+02
306.001690554722472	3.049006e+02
307.000047822748513	3.049236e+02
308.002198067349582	3.049470e+02
309.001808871584217	3.049703e+02
310.001858573359357	3.049934e+02
311.002184243258682	3.050161e+02
311.999461220165017	3.050382e+02
312.999753797771177	3.050593e+02
313.999744042724103	3.050789e+02
314.999690828328198	3.050969e+02
315.999818981944316	3.051133e+02
317.00023091619164	3.051283e+02
318.001098976863545	3.051418e+02
318.999373831436969	3.051537e+02
320.001211808147787	3.051640e+02
321.000226106069363	3.051727e+02
321.999376034933562	3.051800e+02
323.001651389070332	3.051863e+02
324.000748086089516	3.051918e+02
324.999703333702655	3.051968e+02
326.001545828889505	3.052014e+02
326.999937467213101	3.052055e+02
328.00111811584469	3.052089e+02
329.001987696958963	3.052113e+02
329.999422553698025	3.052124e+02
330.999715268247314	3.052119e+02
331.999918194926238	3.052101e+02
333.000108392727668	3.052069e+02
334.00022370975563	3.052025e+02
335.000065906066311	3.051968e+02
335.999399097867354	3.051903e+02
337.001230073471334	3.051833e+02
337.999469219042339	3.051769e+02
339.000550714207805	3.051716e+02
340.001507743738898	3.051677e+02
340.999265990458866	3.051652e+02
341.99996815002072	3.051641e+02
343.000440100121239	3.051646e+02
344.000532404831404	3.051659e+02
345.000106709154068	3.051676e+02
345.999225670617307	3.051694e+02
347.001234387934119	3.051717e+02
348.00009316047209	3.051747e+02
349.001932533937179	3.051780e+02
350.000486460507489	3.051815e+02
351.002013181575876	3.051855e+02
352.000443134278157	3.051908e+02
353.001921276936002	3.051977e+02
354.000062360057882	3.052059e+02
355.000895225558452	3.052150e+02
356.001459075669345	3.052251e+02
357.00201177678548	3.052367e+02
357.999561179209422	3.052498e+02
359.000168374413931	3.052648e+02
360.000591874349936	3.052817e+02
361.00084645387534	3.053005e+02
362.001138646943787	3.053208e+02
363.001663311250468	3.053426e+02
363.999346540087515	3.053655e+02
365.000242057282549	3.053895e+02
366.001228622373162	3.054138e+02
366.999349217430961	3.054379e+02
368.000952455183608	3.054617e+02
368.999926900583603	3.054851e+02
369.999355488438312	3.055083e+02
370.999133130106941	3.055309e+02
371.999210594023111	3.055523e+02
372.999575543232538	3.055722e+02
374.000205095512115	3.055906e+02
375.001055730509222	3.056083e+02
376.002174880347638	3.056255e+02
377.000611896637395	3.056423e+02
377.99954966619373	3.056587e+02
379.002045647678301	3.056747e+02
380.001643380302028	3.056901e+02
381.001231302158544	3.057048e+02
382.000737562198879	3.057183e+02
383.000233295269027	3.057302e+02
383.999861042211705	3.057407e+02
384.999731989993052	3.057501e+02
385.999861936302523	3.057585e+02
387.000215319285815	3.057659e+02
388.00068383679212	3.057721e+02
389.001186324506989	3.057772e+02
390.001610851117277	3.057814e+02
391.001869615681301	3.057846e+02
392.001892200649195	3.057871e+02
393.001690126302037	3.057889e+02
394.001215543129092	3.057896e+02
395.000274367074383	3.057891e+02
396.001750172953393	3.057871e+02
396.999406228935811	3.057839e+02
397.999520001533199	3.057797e+02
399.002183028809839	3.057749e+02
400.001196576230655	3.057693e+02
400.99969694708949	3.057629e+02
402.001069254807533	3.057562e+02
402.999399294612942	3.057500e+02
404.00099757103294	3.057447e+02
404.999682728240828	3.057403e+02
406.001576591325716	3.057363e+02
407.000477904558295	3.057333e+02
407.999540113344096	3.057318e+02
409.001902516955738	3.057323e+02
410.001292038800955	3.057348e+02
411.000615087625135	3.057387e+02
411.999723106324382	3.057436e+02
413.001646711634294	3.057499e+02
414.000207196156282	3.057575e+02
415.001610882202385	3.057664e+02
415.999652934693358	3.057759e+02
417.000455128680642	3.057857e+02
418.000876805147186	3.057955e+02
419.000989618787287	3.058056e+02
420.000983464306273	3.058162e+02
421.000958776981918	3.058278e+02
422.000921377193549	3.058408e+02
423.000903035610179	3.058551e+02
424.000904214156037	3.058705e+02
425.000996649867034	3.058867e+02
426.001160750606346	3.059037e+02
427.001494333960409	3.059216e+02
428.00209677977233	3.059400e+02
428.999910178610492	3.059588e+02
430.001192944803847	3.059780e+02
430.999883937068262	3.059978e+02
432.002202121200241	3.060187e+02
433.001903892023677	3.060403e+02
434.002005737559898	3.060624e+02
434.999385616044265	3.060841e+02
436.000201877582526	3.061050e+02
437.001170918164519	3.061244e+02
438.00212978450827	3.061420e+02
438.999920319968794	3.061572e+02
440.000710572743458	3.061702e+02
441.001408466297789	3.061813e+02
442.002064763753197	3.061915e+02
442.999679990907794	3.062016e+02
444.00057273407225	3.062126e+02
445.001775635677234	3.062250e+02
446.000295765137821	3.062387e+02
446.999273686880258	3.062535e+02
448.00177272814733	3.062692e+02
449.001483319675515	3.062852e+02
450.001398579097838	3.063011e+02
451.001472926408155	3.063162e+02
452.001741264542147	3.063296e+02
453.002211916973351	3.063408e+02
453.999737617464689	3.063491e+02
455.000437219421826	3.063544e+02
456.001057490577352	3.063565e+02
457.001348043989196	3.063559e+02
458.000942666287756	3.063526e+02
458.999749584671974	3.063475e+02
460.000918742720728	3.063409e+02
461.00124329032144	3.063328e+02
462.000823408848817	3.063241e+02
463.000017155035152	3.063152e+02
463.999253962609714	3.063066e+02
465.001890335189728	3.062986e+02
466.002118929764606	3.062920e+02
466.999659031784518	3.062869e+02
468.000531465963604	3.062831e+02
469.001255511123759	3.062802e+02
470.001491495706659	3.062778e+02
471.000964692035268	3.062756e+02
471.999536830846523	3.062734e+02
473.000301447331992	3.062717e+02
474.00021143251297	3.062708e+02
474.9993601687097	3.062712e+02
476.000783431550246	3.062731e+02
477.001426683457225	3.062766e+02
478.0013294679826	3.062815e+02
479.000575914768376	3.062878e+02
479.999234902912406	3.062953e+02
481.000479209138859	3.063041e+02
482.001295910090278	3.063140e+02
483.001704139410492	3.063249e+02
484.00178408342299	3.063366e+02
485.001664822552584	3.063495e+02
486.001406635918386	3.063639e+02
487.001087007316471	3.063805e+02
488.000850381713917	3.063991e+02
489.000813344166488	3.064194e+02
490.000981795566474	3.064408e+02
491.00125832246249	3.064625e+02
492.001684217808304	3.064840e+02
492.99939413848648	3.065052e+02
494.000719238769705	3.065259e+02
494.999660839723674	3.065457e+02
495.999293729543808	3.065644e+02
496.999453356528591	3.065820e+02
497.999887946345211	3.065985e+02
499.000442029133922	3.066139e+02
500.001111835344943	3.066284e+02
501.002019601352572	3.066419e+02
502.000236568689388	3.066548e+02
503.002039400038257	3.066681e+02
504.0012787918306	3.066823e+02
505.001007414161222	3.066981e+02
506.001186752185674	3.067156e+02
507.001709368306422	3.067347e+02
507.999371288790201	3.067553e+02
509.000251781738996	3.067771e+02
510.001183589321784	3.067996e+02
511.002164067143099	3.068220e+02
512.000130656694409	3.068434e+02
513.001215504268885	3.068632e+02
513.999181033360628	3.068807e+02
515.000180110856263	3.068956e+02
516.001133014596462	3.069078e+02
517.002031612560131	3.069173e+02
517.999751928516162	3.069241e+02
519.000446535678634	3.069282e+02
520.001009309554775	3.069295e+02
521.001366067921367	3.069284e+02
522.001367871790421	3.069252e+02
523.000958416949402	3.069202e+02
523.999884850454464	3.069140e+02
525.000863078397288	3.069078e+02
526.000730387074327	3.069021e+02
526.999447329576697	3.068977e+02
527.999970309836385	3.068953e+02
528.99918668330281	3.068957e+02
530.000148515173805	3.068993e+02
530.999840949936242	3.069063e+02
532.001438770098389	3.069165e+02
533.002105702725999	3.069295e+02
534.002128614176513	3.069450e+02
535.001675572193221	3.069622e+02
536.00079731984556	3.069806e+02
536.999417545581878	3.069995e+02
538.000507994268219	3.070180e+02
539.001045920197612	3.070353e+02
540.001107217858362	3.070508e+02
541.000793522413232	3.070644e+02
542.00036395165921	3.070761e+02
543.000056709638443	3.070863e+02
543.999965601871168	3.070955e+02
545.000067956279395	3.071047e+02
546.000298926345408	3.071147e+02
547.000615497026843	3.071259e+02
548.001060929089135	3.071378e+02
549.0016914245723	3.071505e+02
549.99942313618601	3.071633e+02
551.000339615319149	3.071764e+02
552.001564518718737	3.071897e+02
553.000333763680032	3.072032e+02
553.999953309227521	3.072173e+02
555.000500307863376	3.072325e+02
556.001853977236806	3.072486e+02
557.000742435261373	3.072656e+02
558.000057234439168	3.072839e+02
558.999698243294233	3.073030e+02
559.999593029056996	3.073227e+02
560.99969689862553	3.073425e+02
561.99998784127024	3.073621e+02
563.000428298000998	3.073809e+02
564.000935833766334	3.073983e+02
565.001314925658789	3.074141e+02
566.001418003635649	3.074281e+02
567.001209790490293	3.074405e+02
568.00068689245677	3.074516e+02
568.999859324308204	3.074616e+02
570.001766381477182	3.074708e+02
571.000411212337326	3.074788e+02
572.002070603366519	3.074856e+02
573.000711331323714	3.074905e+02
573.999307423024675	3.074933e+02
575.000728360617927	3.074938e+02
576.001726066406832	3.074918e+02
577.002114498358651	3.074875e+02
578.001691270227298	3.074816e+02
579.000250033733209	3.074755e+02
580.000886306321149	3.074710e+02
581.000895918832953	3.074694e+02
582.00066889190964	3.074715e+02
583.000556948397843	3.074764e+02
584.000894905743849	3.074830e+02
585.001793707317006	3.074901e+02
586.00022477092125	3.074962e+02
586.999263799181108	3.075008e+02
588.002109183619609	3.075039e+02
589.000030943304182	3.075059e+02
589.999587108224659	3.075073e+02
591.001140016381328	3.075083e+02
592.001698272853673	3.075091e+02
593.001057265885606	3.075095e+02
594.001939881682006	3.075094e+02
595.001024080226216	3.075083e+02
596.001273861919799	3.075061e+02
596.999480325205809	3.075025e+02
598.001604292596426	3.074973e+02
599.001215452755446	3.074907e+02
600.001199900228812	3.074827e+02
601.001344681704381	3.074741e+02
602.001702733897105	3.074655e+02
602.99941363408459	3.074573e+02
604.000728454961632	3.074495e+02
604.99933007184859	3.074419e+02
606.001174877580752	3.074339e+02
606.999792466388385	3.074251e+02
608.001203869894994	3.074146e+02
609.002070819266237	3.074019e+02
609.999266336824917	3.073875e+02
610.999757468849339	3.073725e+02
612.00139002093556	3.073584e+02
613.001600806116585	3.073455e+02
614.000189069724684	3.073345e+02
614.999852178787137	3.073253e+02
616.000176036429934	3.073178e+02
617.000897798184383	3.073129e+02
618.001672429119481	3.073102e+02
619.002158032970215	3.073084e+02
620.002074642784351	3.073059e+02
621.001361101898965	3.073029e+02
622.000156122208637	3.073004e+02
623.001802407106766	3.072995e+02
624.000236713821096	3.073000e+02
625.001609463308455	3.073010e+02
625.999463104792767	3.073023e+02
626.999818850066845	3.073041e+02
627.999517567421549	3.073070e+02
629.001656207893802	3.073113e+02
629.999995183581177	3.073163e+02
631.000568250618471	3.073209e+02
632.000215225888041	3.073244e+02
633.001986283654787	3.073270e+02
633.999537336512503	3.073292e+02
634.999132640528046	3.073320e+02
636.000802643063139	3.073360e+02
637.001433342946257	3.073418e+02
638.001089779168865	3.073494e+02
638.999836440705167	3.073588e+02
640.000875739029539	3.073699e+02
641.001078968624142	3.073823e+02
642.000494232609981	3.073956e+02
642.999371942604512	3.074095e+02
644.001040605103185	3.074240e+02
644.999555263472416	3.074388e+02
646.001137821637144	3.074540e+02
646.999646664447141	3.074693e+02
648.001111453757972	3.074844e+02
648.999334584620101	3.074994e+02
650.000406332609032	3.075142e+02
651.001224942782073	3.075290e+02
651.998696169992854	3.075440e+02
652.998856863966921	3.075604e+02
653.998749393176922	3.075786e+02
654.998512852823183	3.075990e+02
656.001293958787869	3.076212e+02
657.000926740771661	3.076456e+02
658.000200637024022	3.076745e+02
658.998810144028198	3.077055e+02
659.999702954730083	3.077382e+02
660.999768946875065	3.077731e+02
661.999323599484569	3.078092e+02
662.998727715096152	3.078461e+02
664.00114996206662	3.078837e+02
665.000331501001028	3.079214e+02
665.999236380266439	3.079590e+02
667.001075938538293	3.079965e+02
667.99990737709993	3.080337e+02
668.998846502016022	3.080709e+02
670.001088786691753	3.081076e+02
671.000642671582568	3.081429e+02
672.000520852364502	3.081753e+02
673.000502763889813	3.082050e+02
674.000463914448346	3.082324e+02
675.00045154435702	3.082572e+02
676.000570801109689	3.082793e+02
677.000804199379331	3.082992e+02
678.000943422799651	3.083170e+02
679.000746801081618	3.083331e+02
680.000044574874778	3.083474e+02
680.998722901580436	3.083599e+02
681.999792965644474	3.083703e+02
683.000188566675661	3.083784e+02
683.999961065607636	3.083837e+02
684.999185612189308	3.083857e+02
686.000981853244866	3.083843e+02
686.999399317391976	3.083798e+02
688.000536035709615	3.083731e+02
689.001296636559346	3.083656e+02
689.998687662844418	3.083588e+02
690.999008184794661	3.083537e+02
691.999576241594013	3.083511e+02
693.00066475907613	3.083507e+02
693.999277216618339	3.083516e+02
695.001338909865353	3.083525e+02
696.000569622538023	3.083526e+02
696.999986801724731	3.083514e+02
697.999733777985853	3.083491e+02
698.999992872164739	3.083458e+02
700.000918304295624	3.083421e+02
700.999581912029157	3.083385e+02
701.999150475083525	3.083351e+02
702.999744669743791	3.083323e+02
704.001519521032719	3.083295e+02
705.001411746954886	3.083263e+02
706.002323543761349	3.083218e+02
707.001054198982615	3.083158e+02
708.000497717840631	3.083078e+02
709.000408152529076	3.082978e+02
710.000512239573368	3.082861e+02
711.000594858950876	3.082728e+02
712.000413685901776	3.082590e+02
712.999706913460955	3.082454e+02
714.001319418557728	3.082326e+02
715.001943638924331	3.082210e+02
716.001302026816006	3.082106e+02
717.002356220759907	3.082008e+02
717.999519355635925	3.081922e+02
719.000062564927021	3.081850e+02
720.001719110069075	3.081800e+02
721.001693662802495	3.081774e+02
721.99980247822441	3.081777e+02
723.001409114304579	3.081804e+02
723.999591156718793	3.081848e+02
724.999876829891264	3.081899e+02
726.002004796299389	3.081953e+02
726.999953669872298	3.082005e+02
728.00011300839094	3.082060e+02
728.999756236277676	3.082128e+02
730.002232377005271	3.082220e+02
731.001780104357977	3.082343e+02
732.001819763879098	3.082505e+02
732.999580358090498	3.082704e+02
734.001217199256189	3.082930e+02
735.000547491028442	3.083161e+02
736.000560047618023	3.083401e+02
737.001255422255213	3.083637e+02
737.999594090362166	3.083848e+02
739.001694641209951	3.084022e+02
740.00128633986742	3.084148e+02
741.001233907454662	3.084220e+02
742.001432585764633	3.084244e+02
743.001926828208639	3.084223e+02
743.99976857689785	3.084169e+02
745.001333944016437	3.084096e+02
746.000705516423182	3.084021e+02
747.001305677152459	3.083956e+02
748.000162623662618	3.083905e+02
749.00021956867181	3.083869e+02
750.001216629147621	3.083842e+02
750.999606984689194	3.083823e+02
752.000962590618542	3.083808e+02
753.00181833238139	3.083791e+02
754.001881969351871	3.083772e+02
755.001104184896235	3.083749e+02
755.999693609512065	3.083725e+02
757.00106312723824	3.083702e+02
758.002317991477412	3.083681e+02
759.000383853046173	3.083667e+02
760.001408346930475	3.083664e+02
761.002206241925364	3.083670e+02
761.999551920649083	3.083684e+02
762.999541409418157	3.083698e+02
764.002144976971977	3.083708e+02
765.001167954716152	3.083706e+02
765.999591331863485	3.083687e+02
767.000401579944878	3.083647e+02
768.000507560271103	3.083582e+02
768.999910164475523	3.083494e+02
770.001671503248986	3.083389e+02
770.999564494884453	3.083263e+02
771.999555972301209	3.083129e+02
773.001505611831703	3.082998e+02
774.00225733104719	3.082875e+02
775.001857506405713	3.082773e+02
776.000281048139186	3.082692e+02
777.000654815427197	3.082638e+02
778.000082732981014	3.082622e+02
779.00185918884506	3.082649e+02
780.000301056674857	3.082710e+02
781.001776587820473	3.082789e+02
782.000423045111575	3.082869e+02
782.999554088148784	3.082942e+02
783.999513800148293	3.083011e+02
785.000547080339857	3.083085e+02
785.999520838836816	3.083172e+02
787.00236201633993	3.083272e+02
787.999795211683022	3.083382e+02
789.000753439884988	3.083488e+02
790.001834178054082	3.083575e+02
790.999607298883689	3.083638e+02
791.999965086904126	3.083677e+02
792.999900038492001	3.083706e+02
793.999601046711632	3.083741e+02
795.002299013307834	3.083799e+02
796.001966765923953	3.083883e+02
797.001613350326807	3.083993e+02
798.001220200889975	3.084124e+02
799.000821439485776	3.084271e+02
800.000490480488338	3.084430e+02
801.000340265333307	3.084598e+02
802.000492569863923	3.084775e+02
803.001091760363693	3.084960e+02
804.002279577514742	3.085147e+02
805.000988036171066	3.085324e+02
806.000076056748412	3.085484e+02
807.002437121248477	3.085621e+02
808.001914714966915	3.085729e+02
809.001628570144817	3.085809e+02
810.00168386434882	3.085868e+02
811.002000650126433	3.085918e+02
811.99945090255801	3.085971e+02
813.000107932758169	3.086048e+02
814.000788898236578	3.086149e+02
815.001248874559451	3.086270e+02
816.00127599351913	3.086403e+02
817.00094046335073	3.086538e+02
818.000505362615741	3.086671e+02
819.000241898902459	3.086792e+02
820.000302538877008	3.086899e+02
821.000821796154241	3.086993e+02
822.002000164440233	3.087077e+02
823.000920806399222	3.087155e+02
824.000543619367932	3.087223e+02
825.000634375626305	3.087280e+02
826.001058110417944	3.087325e+02
827.001817590443352	3.087359e+02
827.99982957959935	3.087382e+02
829.001151405247469	3.087394e+02
829.9995907947158	3.087398e+02
831.001359001344099	3.087399e+02
832.000399304956431	3.087404e+02
832.999764345056633	3.087414e+02
833.999404517371886	3.087428e+02
835.00242129435776	3.087445e+02
835.999695514260907	3.087469e+02
837.000458213258867	3.087500e+02
838.001625521718324	3.087535e+02
839.000104709246216	3.087573e+02
840.002044762669811	3.087614e+02
841.001192362276129	3.087653e+02
842.00054507356765	3.087687e+02
843.000065470807272	3.087712e+02
843.999715224825763	3.087727e+02
844.999428476399089	3.087731e+02
846.002250560591506	3.087723e+02
847.002042746330744	3.087705e+02
848.001922209487248	3.087678e+02
849.00188083810167	3.087647e+02
850.001896297196026	3.087617e+02
851.001956264560476	3.087591e+02
852.001979161047075	3.087569e+02
853.001839221350679	3.087554e+02
854.001400354121074	3.087543e+02
855.000592497894786	3.087533e+02
855.999393532125509	3.087523e+02
857.000881179592284	3.087513e+02
858.00199598959523	3.087504e+02
858.999697358052117	3.087494e+02
860.00019611782966	3.087485e+02
861.000431493044971	3.087480e+02
862.000404940854651	3.087480e+02
863.000082067738163	3.087486e+02
864.002440143688204	3.087498e+02
865.001221899579036	3.087516e+02
865.999441980633037	3.087538e+02
867.000150461305452	3.087563e+02
868.000245424650984	3.087588e+02
868.999734581905045	3.087614e+02
870.00176650884157	3.087640e+02
871.00028538931258	3.087667e+02
872.00146022793956	3.087697e+02
873.002286628596949	3.087733e+02
873.999798676095565	3.087778e+02
875.000182992881832	3.087835e+02
876.000276901731922	3.087904e+02
877.00011025819731	3.087979e+02
877.999705032428892	3.088050e+02
879.002162666332765	3.088116e+02
880.001405520703656	3.088176e+02
881.000512403068456	3.088230e+02
881.999510826933374	3.088288e+02
883.00143447039909	3.088354e+02
884.000127449319734	3.088425e+02
885.001602034613711	3.088500e+02
885.999621700901002	3.088577e+02
887.000141259756447	3.088656e+02
888.000057975955201	3.088738e+02
888.999405322037205	3.088824e+02
890.001282717392428	3.088915e+02
890.999642723014972	3.089012e+02
892.000527846719933	3.089119e+02
893.000808363270039	3.089237e+02
894.000334326603479	3.089376e+02
895.001982458421708	3.089538e+02
895.999497893964076	3.089719e+02
897.001795232634663	3.089929e+02
897.999611826668797	3.090154e+02
899.00205133206407	3.090383e+02
900.000310753932808	3.090611e+02
901.000662720802893	3.090834e+02
902.000257349868207	3.091056e+02
903.002042004553459	3.091288e+02
903.999671235778465	3.091530e+02
905.001863639353246	3.091775e+02
905.999478344622617	3.092013e+02
907.001889032551048	3.092230e+02
908.000495888488899	3.092427e+02
909.001473202102261	3.092607e+02
910.001909396081942	3.092774e+02
911.00205266430919	3.092932e+02
912.002266329653366	3.093092e+02
912.999851397788689	3.093255e+02
914.000923795710264	3.093424e+02