# Probe 0 (1.8 2.12 1.42)
# Probe 1 (4.8 1.65 1.5)
# Probe 2 (2.5 2.09 0.95)
# Probe 3 (2.8 0.65 0.75)
#       Probe             0             1             2             3
#        Time
     0.999427        297.15        297.15        297.15        297.15
      2.00049        297.15       297.149        297.15        297.15
      3.00031        297.15       297.149        297.15        297.15
      3.99974        297.15        297.15        297.15        297.15
      4.99985        297.15        297.15        297.15        297.15
      6.00105        297.15        297.15        297.15        297.15
      7.00053        297.15        297.15        297.15        297.15
      8.00051        297.15        297.15        297.15        297.15
      9.00021        297.15        297.15        297.15        297.15
      10.0014        297.15        297.15        297.15        297.15
      11.0007        297.15        297.15        297.15        297.15
       12.001        297.15       297.154        297.15        297.15
      13.0013       297.148       297.163       297.149        297.15
      14.0004       297.138       297.173       297.122        297.15
      15.0009       297.119       297.184       296.981        297.15
      16.0011       297.089       297.192       296.826        297.15
       17.001       297.073       297.195       296.811       297.152
      18.0014       297.096       297.194       296.898       297.155
      19.0002       297.125       297.192       297.018       297.159
           20        297.14       297.191       297.103       297.164
      21.0006       297.145       297.192       297.137       297.169
      22.0002       297.148       297.196       297.146       297.173
      23.0017       297.149       297.202       297.149       297.177
      24.0016        297.15       297.212        297.15       297.182
      24.9993       297.149       297.225       297.151       297.187
      26.0007       297.147       297.241       297.153       297.194
      27.0001       297.144       297.258       297.154       297.201
      28.0006        297.14       297.275       297.156        297.21
      29.0017       297.136        297.29       297.158        297.22
      29.9998       297.131       297.304       297.161        297.23
      31.0002       297.126       297.319       297.164       297.242
      31.9997       297.122       297.334       297.167       297.254
      33.0015       297.119       297.349        297.17       297.268
      34.0002       297.115       297.367       297.173       297.282
      34.9994        297.11       297.385       297.177       297.296
      35.9998       297.103       297.406       297.181        297.31
      37.0015       297.096       297.428       297.186       297.324
      38.0016       297.092        297.45        297.19       297.339
      38.9995       297.093       297.471       297.195       297.355
      40.0008       297.101       297.491         297.2       297.372
      41.0021       297.117       297.508       297.205        297.39
      42.0003       297.138       297.523       297.212       297.408
      43.0013       297.163       297.536       297.219       297.425
       44.002        297.19       297.547       297.229       297.441
      44.9999       297.219       297.557        297.24       297.457
      46.0014       297.246       297.566       297.252       297.472
      47.0003       297.273       297.575       297.265       297.487
      47.9999       297.299       297.585       297.278       297.502
      49.0004       297.323       297.595       297.292       297.516
      50.0018       297.347       297.607       297.305        297.53
       51.001       297.368        297.62       297.318       297.545
       52.001       297.388       297.634       297.332       297.559
      53.0018       297.407       297.649       297.345       297.574
      54.0002       297.424       297.665       297.358        297.59
      54.9994       297.439       297.681       297.371       297.606
      56.0022       297.452       297.698       297.385       297.623
      56.9994       297.463       297.714       297.398       297.641
      57.9999       297.473        297.73       297.411       297.659
      59.0008       297.481       297.747       297.425       297.678
      60.0019       297.489       297.763       297.439       297.697
      61.0004       297.498       297.778       297.453       297.716
      61.9992       297.506       297.794       297.468       297.734
      63.0017       297.516        297.81       297.483       297.752
      64.0018       297.527       297.825       297.499       297.769
      64.9996       297.539       297.841       297.514       297.786
      66.0012       297.553       297.856        297.53       297.802
      67.0005       297.566       297.872       297.546       297.818
      68.0004        297.58       297.888       297.563       297.834
      69.0008       297.594       297.904       297.579        297.85
      70.0016       297.608       297.919       297.596       297.865
      70.9998       297.622       297.935       297.613       297.881
      72.0016       297.636        297.95        297.63       297.896
       73.001        297.65       297.966       297.647       297.912
       74.001       297.665       297.982       297.664       297.927
      75.0017       297.679       297.999       297.681       297.942
           76       297.695       298.016       297.698       297.958
      77.0017       297.711       298.033       297.714       297.973
      78.0006       297.727       298.051        297.73       297.989
      78.9994       297.743       298.068       297.745       298.005
       80.001        297.76       298.087       297.761       298.021
      80.9991       297.778       298.105       297.776       298.037
      81.9997       297.796       298.124       297.791       298.052
      82.9997       297.814       298.142       297.806       298.068
      84.0021       297.832       298.161       297.821       298.083
      85.0007       297.849        298.18       297.836       298.099
      86.0016       297.865       298.199        297.85       298.115
      87.0018        297.88       298.217       297.865       298.132
      88.0012       297.894       298.235        297.88       298.149
      88.9999       297.907       298.252       297.894       298.166
      90.0009       297.919       298.268       297.909       298.184
      91.0013        297.93       298.284       297.923       298.201
      92.0011       297.941       298.298       297.936       298.217
      93.0004       297.951       298.312        297.95       298.232
      93.9994       297.959       298.325       297.963       298.246
      95.0012       297.968       298.337       297.977       298.258
      95.9998       297.975       298.348        297.99       298.268
      97.0014       297.982       298.358       298.004       298.278
      97.9999       297.989       298.367       298.017       298.287
      99.0014       297.995       298.375        298.03       298.295
      99.9998       298.002       298.384       298.042       298.302
      101.001       298.008        298.39       298.054       298.308
      102.002       298.015       298.398       298.064       298.315
          103       298.022       298.403       298.073       298.321
      104.001       298.029        298.41       298.082       298.327
      105.002       298.037       298.416       298.089       298.333
      106.002       298.045       298.423       298.095       298.338
          107       298.052       298.429       298.101       298.343
      108.003        298.06       298.434       298.106       298.348
      109.002       298.067       298.441       298.111       298.354
      110.001       298.075       298.445       298.115       298.359
      111.002       298.082       298.451       298.119       298.364
          112       298.088       298.455       298.122       298.368
          113       298.094        298.46       298.125       298.371
      114.003         298.1       298.463       298.127       298.374
      115.001       298.105       298.467       298.129       298.376
      116.002        298.11       298.469       298.131       298.377
      117.001       298.115       298.471       298.132       298.377
      118.003       298.119       298.474       298.132       298.377
          119       298.123       298.475       298.132       298.376
      120.002       298.127       298.476       298.131       298.374
          121        298.13       298.477        298.13       298.371
      122.003       298.132       298.478       298.128       298.369
      123.001       298.134       298.478       298.126       298.365
          124       298.134       298.479       298.123       298.361
      125.001       298.134       298.479        298.12       298.357
      126.001       298.132       298.479       298.117       298.353
      127.002       298.129       298.478       298.113       298.348
      128.002       298.125       298.477       298.109       298.343
      129.002       298.119       298.476       298.104       298.338
      130.001       298.112       298.474         298.1       298.332
          131       298.105       298.471       298.097       298.326
      132.003       298.096       298.469       298.094       298.321
      133.002       298.086       298.466       298.091       298.314
          134       298.075       298.463        298.09       298.308
      135.002       298.063       298.459        298.09       298.301
      136.003       298.051       298.456       298.091       298.293
      137.002       298.038       298.452       298.093       298.285
      138.001       298.025       298.447       298.099       298.276
      139.002       298.011       298.443       298.107       298.268
          140       297.999       298.438       298.122       298.258
      141.002       297.986       298.432       298.145       298.248
          142       297.974       298.426       298.178       298.238
          143       297.965        298.42       298.219       298.228
      144.003       297.959       298.413       298.262       298.217
      145.001       297.956       298.407       298.304       298.207
      146.001       297.955         298.4        298.34       298.195
          147       297.956       298.392        298.37       298.182
      148.002       297.956       298.383       298.396        298.17
      149.002       297.956       298.374        298.42       298.161
          150       297.953       298.365       298.444       298.151
      151.002        297.95       298.357       298.466       298.137
      152.002       297.947        298.35       298.487       298.118
          153       297.946       298.344       298.504       298.096
      154.002       297.946       298.339        298.52       298.076
      155.002       297.947       298.336       298.536       298.061
          156        297.95       298.336       298.551       298.045
      157.001       297.954       298.338       298.566       298.025
      158.001        297.96       298.341       298.579       298.001
      159.001       297.969       298.345       298.592        297.98
      160.002       297.978       298.348       298.604       297.961
      161.002       297.986       298.351       298.614       297.945
      162.002       297.993       298.351       298.621       297.929
          163       297.999       298.347       298.626       297.912
      164.002       298.002        298.34       298.628       297.892
      165.001       298.003       298.332       298.629       297.867
      166.002       298.003       298.326       298.627       297.838
      167.003       298.001       298.324       298.624       297.805
      168.001       297.998       298.321        298.62       297.765
          169       297.996       298.314       298.612       297.712
      170.003       297.994       298.305       298.598       297.643
      171.002       297.992       298.292       298.578       297.569
      172.001       297.991       298.277       298.559       297.506
      173.002       297.989       298.261       298.546       297.456
      174.002       297.987       298.251       298.545       297.408
      175.001       297.983       298.246       298.557        297.35
      176.002       297.979       298.241       298.583       297.274
      177.002       297.974       298.233       298.617       297.186
      178.002       297.971       298.222       298.654         297.1
      179.003        297.97       298.215       298.688       297.032
      180.001       297.972       298.214       298.711       296.984
          181       297.974       298.214       298.719       296.947
      182.002       297.975       298.215        298.71        296.91
      183.002        297.97       298.216       298.689       296.871
      184.001       297.961       298.215       298.654       296.836
      185.001       297.947       298.216       298.606       296.805
      186.001       297.931       298.221       298.549       296.781
      187.003       297.913       298.233       298.493       296.775
          188       297.894        298.25       298.452       296.785
      189.002       297.875       298.266       298.411       296.795
      190.001       297.855       298.276        298.34       296.788
      191.003       297.835       298.282       298.226       296.756
      192.002       297.813       298.286       298.093       296.705
      193.002       297.782        298.29       297.972       296.652
          194       297.743       298.298       297.871       296.609
      195.002       297.699       298.308       297.785       296.564
      196.002       297.654       298.312       297.711        296.51
          197       297.613       298.309       297.659       296.459
      198.001       297.582       298.302       297.653       296.424
      199.002       297.562       298.293         297.7       296.396
      200.002        297.55       298.284       297.784       296.367
      201.001        297.54       298.275       297.898       296.337
          202        297.53       298.267       298.028        296.31
      203.002       297.519        298.26       298.172       296.286
          204       297.508       298.251       298.312        296.27
      205.001       297.495       298.242       298.369       296.266
      206.002       297.482       298.232       298.336       296.271
      207.001       297.467       298.223       298.264       296.279
      208.002       297.454       298.214       298.158       296.288
          209       297.442       298.206       298.018       296.298
      210.003       297.431       298.198       297.859       296.309
      211.003        297.42       298.188       297.711       296.316
      212.002       297.408       298.176       297.595       296.318
      213.002       297.394       298.164       297.521       296.316
      214.003       297.375       298.151       297.486       296.309
      215.002       297.352       298.137       297.499       296.297
          216       297.323       298.122       297.568       296.281
          217       297.292       298.104       297.684        296.26
      218.002       297.259       298.085         297.8       296.235
      219.001       297.226       298.065       297.879       296.202
      220.002       297.194       298.045       297.913       296.162
      221.001       297.163       298.025       297.905       296.119
      222.003       297.131       298.008       297.864       296.077
      223.001         297.1       297.993       297.789        296.04
      224.002       297.068       297.982        297.68       296.008
      225.003       297.037       297.974       297.555       295.984
      226.001       297.006       297.969        297.45       295.963
      227.002       296.974       297.965       297.362       295.942
      228.003       296.943       297.962       297.298       295.919
      229.002       296.915       297.961       297.267       295.892
      230.002       296.889       297.959        297.25       295.863
      231.003       296.866       297.958       297.242       295.833
      232.001       296.846       297.956       297.257       295.802
      233.003       296.828       297.953       297.285        295.77
      234.001        296.81        297.95       297.314       295.739
      235.003       296.792       297.945       297.363       295.709
      236.001       296.774       297.938       297.426       295.678
      237.002       296.755        297.93       297.486       295.647
      238.001       296.736       297.922       297.545        295.62
      239.003       296.718       297.912       297.613       295.598
      240.003       296.704         297.9       297.673       295.579
      241.003       296.692       297.887       297.723       295.564
      242.001       296.684       297.872        297.77       295.552
      243.002       296.679       297.857        297.81       295.542
      244.001       296.677       297.841       297.835       295.532
      245.003       296.677       297.825       297.846       295.526
      246.001       296.679       297.809        297.85       295.523
      247.002       296.683       297.793       297.843       295.522
      248.001       296.689       297.778       297.817       295.523
      249.001       296.694       297.763       297.779       295.524
      250.002         296.7       297.749       297.744       295.523
      251.003       296.706       297.736       297.708       295.518
      252.003       296.712       297.727       297.656       295.512
      253.002       296.717       297.715       297.596       295.504
      254.003       296.721       297.705       297.545       295.496
          255       296.724       297.696       297.504       295.488
      256.002       296.726       297.686       297.464       295.481
      257.003       296.728       297.676       297.423       295.476
      258.003       296.728       297.666       297.383       295.473
      259.002       296.728       297.654       297.351       295.473
      260.002       296.726       297.642       297.326       295.476
      261.002       296.723       297.629       297.307       295.481
      262.001       296.719       297.615       297.285       295.488
      263.001       296.714       297.601       297.254       295.499
      264.002       296.708       297.587       297.221       295.514
          265         296.7       297.577       297.185       295.533
      266.001       296.691       297.567       297.124       295.557
      267.001       296.681       297.558       297.037       295.583
      268.003       296.668       297.554        296.95        295.61
      269.002       296.653       297.554       296.863       295.631
      270.002       296.637       297.555       296.759       295.644
          271       296.619       297.559       296.665       295.647
      272.001       296.601       297.563       296.606       295.641
      273.003       296.583       297.573       296.565       295.626
      274.001       296.564       297.579       296.541       295.606
      275.003       296.545       297.584       296.561       295.584
      276.002       296.527       297.587       296.603       295.562
      277.001       296.506       297.589       296.639       295.539
      278.002       296.484       297.587       296.693       295.515
      279.003       296.459       297.584       296.755        295.49
          280       296.433        297.58       296.803       295.464
      281.001       296.406       297.574       296.845       295.438
      282.001       296.379       297.567       296.887       295.414
      283.002       296.351        297.56       296.929       295.393
      284.002       296.325       297.552       296.975       295.374
      285.003         296.3       297.544       297.028        295.36
          286       296.281       297.536       297.078       295.347
      287.002       296.267       297.529       297.115       295.337
      288.001       296.259       297.521       297.144       295.327
      289.002       296.257       297.513       297.168       295.318
      290.003       296.261       297.506       297.171       295.306
      291.002       296.268       297.499       297.159       295.294
      292.003       296.277       297.492       297.145        295.28
      293.001       296.287       297.486       297.128       295.264
      294.002       296.297        297.48       297.104       295.247
      295.002       296.306       297.474        297.08        295.23
      296.002       296.315       297.467       297.066       295.214
      297.002       296.323       297.459       297.059       295.199
      298.003        296.33       297.451       297.057       295.185
      299.001       296.337       297.442       297.063       295.174
      300.003       296.342       297.432       297.074       295.165
      301.002       296.348       297.422       297.083       295.159
      302.002       296.353       297.412       297.086       295.155
      303.002       296.359       297.402       297.084       295.152
      304.002       296.364       297.392       297.073       295.152
      305.002       296.369       297.382       297.053       295.155
      306.003       296.374       297.372       297.024        295.16
          307       296.378       297.363       296.986       295.168
      308.001       296.382       297.358       296.938        295.18
      309.002       296.385       297.348       296.881       295.194
          310       296.388       297.341       296.815        295.21
      311.002        296.39       297.338       296.747       295.225
      312.003       296.392       297.334       296.686       295.238
      313.002       296.393       297.332       296.634       295.246
      314.003       296.393       297.329       296.592       295.249
      315.001       296.393       297.329       296.562       295.252
      316.002       296.391       297.329       296.541       295.257
      317.003       296.388       297.332       296.523        295.26
      318.003       296.383       297.332       296.511       295.261
      319.002       296.377       297.333       296.505       295.261
      320.001       296.369       297.332       296.501        295.26
      321.002       296.358        297.33       296.494        295.26
      322.002       296.345       297.327       296.482        295.26
      323.002       296.329       297.323       296.457        295.26
      324.003        296.31       297.319       296.417       295.261
          325       296.287       297.317       296.376       295.264
      326.003       296.263       297.313       296.341       295.267
      327.002       296.236       297.314       296.302       295.269
      328.003       296.209       297.314       296.269       295.272
      329.003       296.181       297.316       296.244       295.274
      330.002       296.154       297.317       296.217       295.275
      331.003        296.13       297.318       296.197       295.275
      332.001       296.108       297.319       296.191       295.274
      333.002        296.09       297.321       296.191        295.27
      334.002       296.075       297.322       296.193       295.263
      335.002       296.063       297.324       296.208       295.253
      336.001       296.054       297.325       296.234       295.241
      337.001       296.046       297.327       296.259       295.225
          338       296.038       297.328       296.283       295.207
      339.003       296.031       297.329       296.313       295.186
      340.003       296.022       297.329        296.35       295.164
      341.003       296.013       297.329       296.396       295.142
      342.003       296.003       297.327       296.452       295.119
      343.001       295.994       297.323       296.514       295.095
      344.002       295.984       297.318       296.578        295.07
      345.002       295.977       297.311       296.638       295.045
      346.002       295.972       297.304       296.696       295.021
      347.003        295.97       297.294       296.753       294.998
      348.002       295.971       297.284       296.804       294.977
      349.001       295.977       297.274       296.848       294.958
      350.002       295.987       297.262       296.885       294.941
      351.002           296       297.249       296.913       294.927
      352.002       296.016       297.235       296.929       294.915
      353.003       296.034        297.22       296.933       294.906
      354.003       296.053       297.205       296.926       294.901
      355.003       296.072       297.192       296.908       294.899
      356.001       296.091       297.178       296.879         294.9
      357.002       296.108       297.166       296.838       294.904
      358.001       296.123       297.156       296.789       294.911
      359.003       296.137       297.146        296.73       294.919
      360.002       296.149       297.138       296.662        294.93
      361.002        296.16       297.132       296.588       294.943
      362.001        296.17       297.126       296.509       294.959
      363.002       296.178        297.12       296.427       294.976
      364.002       296.185       297.116       296.345       294.992
      365.003       296.189       297.115       296.272       295.007
      366.001       296.192       297.115       296.213       295.019
      367.002       296.194       297.117       296.165       295.026
      368.003       296.195       297.118       296.133       295.029
      369.001       296.195        297.12       296.119       295.034
      370.001       296.193       297.124       296.116       295.042
          371        296.19       297.126       296.119       295.049
      372.002       296.185       297.127       296.125       295.054
      373.002       296.177       297.127       296.131       295.059
      374.001       296.167       297.126       296.127       295.063
      375.002       296.153       297.123       296.106       295.068
      376.002       296.135        297.12       296.059       295.074
      377.001       296.112       297.119       295.986        295.08
      378.001       296.086       297.119       295.913       295.087
      379.003       296.055       297.122       295.854       295.095
      380.001       296.023       297.128       295.792       295.102
      381.003        295.99        297.13       295.742       295.107
      382.001       295.959       297.135       295.727        295.11
      383.001       295.931       297.138       295.723       295.111
          384       295.906       297.141       295.723       295.111
      385.002       295.886       297.142       295.738       295.108
      386.002       295.868       297.144       295.764       295.103
      387.002       295.853       297.146       295.796       295.094
      388.002       295.839       297.147       295.829       295.081
      389.001       295.826       297.149        295.86       295.064
      390.001       295.812        297.15       295.887       295.045
      391.003       295.797       297.151       295.916       295.023
      392.002       295.781       297.152       295.951       295.001
      393.001       295.763       297.152       295.993       294.978
      394.003       295.745        297.15       296.037       294.955
      395.003       295.728       297.147       296.084       294.932
      396.003       295.711       297.143       296.139       294.909
      397.001       295.697       297.137       296.199       294.885
      398.002       295.687        297.13       296.263        294.86
      399.002       295.683       297.122       296.326       294.834
      400.002       295.683       297.114        296.38        294.81
      401.003       295.688       297.105       296.421       294.787
      402.003       295.698       297.095       296.451       294.767
      403.003        295.71       297.085       296.472       294.748
      404.002       295.725       297.074       296.487       294.732
      405.001       295.743       297.063       296.499       294.718
      406.002       295.762       297.051       296.509       294.705
      407.001       295.784       297.037       296.516       294.694
      408.001       295.807       297.023       296.518       294.685
      409.002       295.831       297.009       296.514       294.678
      410.002       295.854       296.995       296.501       294.674
      411.002       295.877        296.98       296.479       294.673
      412.002       295.897       296.967       296.448       294.675
      413.001       295.916       296.955       296.407        294.68
      414.002       295.931       296.944        296.36       294.687
      415.001       295.944       296.935       296.309       294.697
      416.001       295.954       296.929       296.249       294.709
      417.003       295.963        296.92       296.177       294.724
      418.003       295.968       296.914       296.092       294.741
      419.001       295.972       296.911       296.003       294.759
      420.001       295.975       296.909        295.92       294.778
      421.001       295.976        296.91       295.844       294.794
      422.001       295.977        296.91       295.776       294.806
          423       295.977       296.912       295.723       294.818
      424.002       295.976        296.92       295.688       294.829
          425       295.974       296.926       295.666       294.838