# Region type : patch node2U_1_Outlet_0
#   Faces  : 148
#   Area   : 1.734768e-02
#        Time	areaAverage(T)
     0.999427	2.971500e+02
      2.00049	2.971500e+02
      3.00031	2.971500e+02
      3.99974	2.971500e+02
     4.999852	2.971500e+02
     6.001051	2.971500e+02
     7.000531	2.971500e+02
     8.000508	2.971500e+02
     9.000207	2.971500e+02
   10.0013794	2.971498e+02
   11.0007486	2.971546e+02
   12.0009612	2.971593e+02
   13.0012826	2.971640e+02
   14.0004431	2.971687e+02
 15.000919704	2.971733e+02
 16.001134102	2.971780e+02
 17.000964066	2.971827e+02
 18.001437332	2.971873e+02
 19.000199323	2.971920e+02
20.00002609566	2.971966e+02
21.0005538983	2.972012e+02
22.0001516083	2.972059e+02
23.00171546342	2.972105e+02
24.00158629973	2.972151e+02
24.9992923468791	2.972197e+02
26.0007408332901	2.972243e+02
27.000127321636	2.972289e+02
28.0005920788103	2.972334e+02
29.0017240917936	2.972380e+02
29.9997920938323759	2.972426e+02
31.0002175478398492	2.972472e+02
31.9996891168724211	2.972517e+02
33.0014876982192291	2.972563e+02
34.0001772822966544	2.972608e+02
34.9994365335516946	2.972654e+02
35.9997900444985959	2.972699e+02
37.0015242626866723	2.972745e+02
38.0015591189283697	2.972791e+02
38.9994632840672892	2.972836e+02
40.0007574456951929	2.972882e+02
41.0021224612753414	2.972927e+02
42.0002872525634814	2.972972e+02
43.0012566304121364	2.973018e+02
44.0020467575723373	2.973063e+02
44.9999474219365112	2.973108e+02
46.0013565934288735	2.973154e+02
47.0003167083469933	2.973200e+02
47.9999449913441012	2.973245e+02
49.0004299422109781	2.973292e+02
50.0018024649949737	2.973338e+02
51.0009823404558276	2.973385e+02
52.0009844877071998	2.973432e+02
53.0017643910810605	2.973479e+02
54.0002351206742404	2.973526e+02
54.9993848868174098	2.973573e+02
56.0021814734975152	2.973621e+02
56.9993512698789999	2.973669e+02
57.9999264458105159	2.973716e+02
59.0007923745438418	2.973765e+02
60.0019425234990109	2.973813e+02
61.0003528657921592	2.973861e+02
61.9992021823811967	2.973910e+02
63.0016965212632414	2.973959e+02
64.0018160389436872	2.974008e+02
64.9996150087740006	2.974056e+02
66.0012484215040303	2.974106e+02
67.0005232908566057	2.974155e+02
68.0003944877985589	2.974204e+02
69.0007533914107256	2.974254e+02
70.0015603219173812	2.974304e+02
70.9997684691784627	2.974354e+02
72.0016025253438841	2.974405e+02
73.0009653857906784	2.974455e+02
74.0009923556114444	2.974506e+02
75.0017195732837507	2.974557e+02
75.9999581087556066	2.974608e+02
77.0017104911463264	2.974660e+02
78.0005896543658253	2.974712e+02
78.9993985451516778	2.974763e+02
80.0010209520131355	2.974816e+02
80.9991269425436258	2.974868e+02
81.99974614684497	2.974920e+02
82.9997173174550653	2.974973e+02
84.0020941085013391	2.975026e+02
85.0006823668008735	2.975079e+02
86.0016281094392525	2.975133e+02
87.001834392442106	2.975187e+02
88.0012234801301929	2.975240e+02
88.9998675660702361	2.975294e+02
90.0008787025826535	2.975348e+02
91.0012554686999948	2.975403e+02
92.0011025357617598	2.975457e+02
93.000402258883355	2.975512e+02
93.999363258351579	2.975567e+02
95.0011600540610175	2.975623e+02
95.9997851463064222	2.975678e+02
97.0014259130476262	2.975730e+02
97.999941160804994	2.975786e+02
99.0014269928212656	2.975841e+02
99.9997536230513759	2.975897e+02
101.001031993007544	2.975952e+02
102.002273183616225	2.976008e+02
103.00030896487965	2.976064e+02
104.001240166939084	2.976120e+02
105.001994492542238	2.976176e+02
106.002493253645454	2.976232e+02
106.999679236622228	2.976287e+02
108.00266338555538	2.976343e+02
109.002112539327754	2.976399e+02
110.001000540579781	2.976455e+02
111.002408319914792	2.976512e+02
112.000128955767693	2.976568e+02
113.000219367322458	2.976624e+02
114.00252857400389	2.976680e+02
115.000960042107437	2.976736e+02
116.001504451501489	2.976792e+02
117.001088593146392	2.976849e+02
118.002638565734458	2.976905e+02
118.999993107898078	2.976961e+02
120.002185069780396	2.977018e+02
121.000078758953904	2.977074e+02
122.002653422413488	2.977131e+02
123.000754340607472	2.977187e+02
124.000249782474413	2.977244e+02
125.001208079555653	2.977300e+02
126.000763042848732	2.977357e+02
127.002101925546427	2.977414e+02
128.002452714997276	2.977471e+02
129.002099405373343	2.977528e+02
130.001295117298724	2.977586e+02
131.000335333749604	2.977643e+02
132.002542878069534	2.977701e+02
133.002328883822429	2.977759e+02
134.000075407824681	2.977816e+02
135.002080006486324	2.977875e+02
136.002658325402734	2.977933e+02
137.002219736449121	2.977991e+02
138.001156890232608	2.978049e+02
139.002494820356389	2.978107e+02
139.999771603676663	2.978166e+02
141.002127671732893	2.978224e+02
142.000326828377013	2.978282e+02
143.000354093607029	2.978340e+02
144.002607726763785	2.978398e+02
145.0007989384643	2.978455e+02
146.001058924252675	2.978513e+02
147.000383868891788	2.978570e+02
148.001677150526746	2.978627e+02
149.001583692929302	2.978684e+02
149.999803572063087	2.978741e+02
151.002157085829225	2.978798e+02
152.002368954412987	2.978854e+02
153.000419600010275	2.978911e+02
154.002498633515074	2.978967e+02
155.002367165596809	2.979024e+02
155.999961652498769	2.979079e+02
157.001484117626262	2.979136e+02
158.000771297344329	2.979191e+02
159.001061283777062	2.979247e+02
160.002464068186157	2.979303e+02
161.001787296918621	2.979358e+02
162.001967396205629	2.979413e+02
162.99987013600321	2.979468e+02
164.00169494871875	2.979523e+02
165.001225376364033	2.979577e+02
166.001529530404497	2.979632e+02
167.002578845905987	2.979686e+02
168.001176238471515	2.979740e+02
169.000257904581105	2.979794e+02
170.002691244404929	2.979848e+02
171.001931665802317	2.979901e+02
172.000683988546285	2.979954e+02
173.001764767570933	2.980007e+02
174.001790581428764	2.980060e+02
175.000677962106806	2.980113e+02
176.001649220067776	2.980165e+02
177.001949240672559	2.980218e+02
178.002122222696244	2.980270e+02
179.002687168357028	2.980322e+02
180.000851221809285	2.980373e+02
180.999717822446172	2.980424e+02
182.002107335839327	2.980475e+02
183.001541721738874	2.980525e+02
184.00118027588951	2.980575e+02
185.001003280914091	2.980624e+02
186.000682123100347	2.980673e+02
187.002663329054656	2.980720e+02
188.000129186769328	2.980767e+02
189.002449520229902	2.980813e+02
190.000940841888308	2.980858e+02
191.002657389520721	2.980903e+02
192.00193207052601	2.980946e+02
193.002067741240126	2.980989e+02
194.000021655254614	2.981030e+02
195.002180064267947	2.981070e+02
196.002286473872317	2.981108e+02
197.000051748967081	2.981144e+02
198.001304877255649	2.981179e+02
199.002178816809533	2.981211e+02
200.002215502925168	2.981241e+02
201.001498532132615	2.981270e+02
201.999694163551595	2.981298e+02
203.001846437787179	2.981325e+02
204.000260420414349	2.981352e+02
205.00076131728639	2.981378e+02
206.002090419317909	2.981405e+02
207.000933874151769	2.981432e+02
208.002051103417983	2.981459e+02
208.999656559112651	2.981487e+02
210.002554894086018	2.981515e+02
211.002667236961031	2.981544e+02
212.001596726417318	2.981573e+02
213.001608092022508	2.981602e+02
214.002622446640459	2.981631e+02
215.001874005837209	2.981660e+02
215.999728612705354	2.981689e+02
216.999660290062565	2.981718e+02
218.001954924164266	2.981747e+02
219.000511816629086	2.981776e+02
220.001826431655815	2.981805e+02
221.000639544984523	2.981833e+02
222.002502294171933	2.981861e+02
223.000913212408875	2.981884e+02
224.002046212566881	2.981911e+02
225.003156607808734	2.981938e+02
226.001390350997411	2.981964e+02
227.002497212841774	2.981989e+02
228.002739898910363	2.982013e+02
229.001536327455568	2.982035e+02
230.001647404054182	2.982057e+02
231.00330061146002	2.982077e+02
232.000523516120211	2.982096e+02
233.002842430776326	2.982114e+02
234.001494645122733	2.982132e+02
235.002785069853047	2.982149e+02
236.000926294089766	2.982165e+02
237.002404068492893	2.982181e+02
238.00113538662697	2.982197e+02
239.003268786141433	2.982212e+02
240.002837271213338	2.982227e+02
241.002924640601435	2.982242e+02
242.000538849728684	2.982257e+02
243.001804112537513	2.982272e+02
244.000640700406763	2.982287e+02
245.003319865708534	2.982302e+02
246.000707285940621	2.982318e+02
247.002007858199192	2.982333e+02
248.001056509176266	2.982349e+02
249.000979686864213	2.982365e+02
250.001763504070198	2.982381e+02
251.003303069669386	2.982397e+02
252.002504112295213	2.982413e+02
253.002425917797012	2.982429e+02
254.00272094465015	2.982444e+02
255.000360008183009	2.982459e+02
256.001595315007876	2.982474e+02
257.003362294698888	2.982489e+02
258.00255842102257	2.982504e+02
259.002152677035099	2.982519e+02
260.001981664416917	2.982534e+02
261.001813615033029	2.982549e+02
262.00140485254326	2.982564e+02
263.000594512311977	2.982579e+02
264.002385110868943	2.982595e+02
265.000443256167102	2.982610e+02
266.00098100543147	2.982624e+02
267.000967536314135	2.982639e+02
268.003276483198704	2.982653e+02
269.001523373274665	2.982666e+02
270.001725671010206	2.982678e+02
271.000481539417819	2.982688e+02
272.000714420740564	2.982698e+02
273.00292130020199	2.982705e+02
274.000742213383489	2.982712e+02
275.003225097653171	2.982717e+02
276.002032194746505	2.982721e+02
277.000645892159866	2.982725e+02
278.001942131295436	2.982728e+02
279.002858147299435	2.982731e+02
280.000465239377263	2.982734e+02
281.00097370133733	2.982736e+02
282.001341653260511	2.982738e+02
283.001642410801367	2.982740e+02
284.002016096109742	2.982742e+02
285.002594573110798	2.982744e+02
286.000496967216804	2.982746e+02
287.002085942394046	2.982748e+02
288.001482882226242	2.982751e+02
289.001835081267131	2.982753e+02
290.003171985280858	2.982756e+02
291.002445487420459	2.982759e+02
292.00266059645827	2.982762e+02
293.000613069468443	2.982765e+02
294.002349181339184	2.982768e+02
295.00168572860008	2.982771e+02
296.001605090646819	2.982774e+02
297.002037684732386	2.982777e+02
298.002982875965245	2.982779e+02
299.001348785551954	2.982782e+02
300.003249842926266	2.982785e+02
301.002466047054213	2.982787e+02
302.00202327849081	2.982790e+02
303.001852912322136	2.982792e+02
304.001950072599357	2.982795e+02
305.002289029862141	2.982798e+02
306.002804463364726	2.982800e+02
307.000339936166938	2.982803e+02
308.00112525275722	2.982806e+02
309.002161798808231	2.982809e+02
310.000299732926749	2.982813e+02
311.001753903974702	2.982816e+02
312.003228476479023	2.982819e+02
313.001570746664754	2.982823e+02
314.002891930573128	2.982826e+02
315.001098790657693	2.982829e+02
316.002212737646175	2.982831e+02
317.002753693123339	2.982834e+02
318.002741051715759	2.982836e+02
319.002227453965133	2.982838e+02
320.000977275220748	2.982840e+02
321.001929756773393	2.982842e+02
322.002125388221941	2.982843e+02
323.001535981613699	2.982844e+02
324.003041981572039	2.982845e+02
325.000374037859729	2.982845e+02
326.002912654348165	2.982845e+02
327.001586614448399	2.982844e+02
328.002512909745406	2.982843e+02
329.002543076401537	2.982841e+02
330.001749801562255	2.982838e+02
331.003321449891018	2.982834e+02
332.001214450012128	2.982831e+02
333.001643036346195	2.982826e+02
334.001697745459865	2.982822e+02
335.001516663824475	2.982817e+02
336.001181848031365	2.982811e+02
337.000752428457247	2.982806e+02
338.000308954575644	2.982800e+02
339.002955696242054	2.982795e+02
340.002659874426115	2.982789e+02
341.002600634695796	2.982784e+02
342.002938705057034	2.982778e+02
343.00077039028929	2.982773e+02
344.002322513747629	2.982768e+02
345.001592396976321	2.982762e+02
346.001698609735854	2.982758e+02
347.002663850727458	2.982753e+02
348.001500187671638	2.982748e+02
349.001388311793335	2.982744e+02
350.002414947083139	2.982740e+02
351.001524849529289	2.982737e+02
352.001809729970944	2.982733e+02
353.003257770451626	2.982730e+02
354.002679028832802	2.982727e+02
355.002987136006652	2.982725e+02
356.000911663448676	2.982723e+02
357.002428780017908	2.982721e+02
358.001143590770198	2.982719e+02
359.003187156254512	2.982718e+02
360.002328007981532	2.982716e+02
361.001683939638156	2.982714e+02
362.001359795507994	2.982712e+02
363.001507924815201	2.982710e+02
364.002174605211678	2.982708e+02
365.003082904724977	2.982706e+02
366.000971151079284	2.982703e+02
367.002024801993684	2.982701e+02
368.003029631648076	2.982698e+02
369.000706243231605	2.982696e+02
370.000978286578629	2.982693e+02
371.000341037977933	2.982690e+02
372.001639388103968	2.982688e+02
373.001936067328529	2.982685e+02
374.001098067899704	2.982683e+02
375.001995770755968	2.982679e+02
376.001888708956301	2.982676e+02
377.000697192593861	2.982672e+02
378.000866014206679	2.982667e+02
379.002752522726666	2.982662e+02
380.000575798720831	2.982656e+02
381.003082793718704	2.982648e+02
382.001184982359462	2.982641e+02
383.001246857416106	2.982632e+02
384.000394613058518	2.982623e+02
385.001759695812154	2.982613e+02
386.00240715265619	2.982603e+02
387.002475787051594	2.982593e+02
388.002127551349872	2.982583e+02
389.001458400598608	2.982572e+02
390.000565905005942	2.982562e+02
391.002619073859478	2.982551e+02
392.001663165008722	2.982541e+02
393.000807787559211	2.982531e+02
394.003205212637624	2.982520e+02
395.002903667881753	2.982510e+02
396.003070787040201	2.982500e+02
397.000788944054477	2.982490e+02
398.002261847880902	2.982481e+02
399.00152648097702	2.982471e+02
400.00177377167654	2.982462e+02
401.003123898012916	2.982453e+02
402.002521793520543	2.982444e+02
403.003004667831249	2.982436e+02
404.001507006324118	2.982428e+02
405.001142764898987	2.982420e+02
406.001969983514186	2.982412e+02
407.000910831287001	2.982404e+02
408.001049694494611	2.982396e+02
409.002337982931579	2.982389e+02
410.00156732501398	2.982381e+02
411.001678106944439	2.982374e+02
412.002483731703308	2.982367e+02
413.000720830192734	2.982361e+02
414.002430925371357	2.982354e+02
415.001324339358689	2.982347e+02
416.000503792273548	2.982340e+02
417.003249666369186	2.982334e+02
418.003350729972851	2.982327e+02
419.000725169714599	2.982320e+02
420.001102693622329	2.982313e+02
421.001189561263857	2.982306e+02
422.000968618332536	2.982299e+02
423.000465739541255	2.982291e+02
424.002481090010178	2.982284e+02
425.000454111860961	2.982276e+02
426.000377766803297	2.982267e+02
427.002167768366064	2.982259e+02
428.002663618545625	2.982250e+02
429.001856513206576	2.982241e+02
430.002984116604978	2.982232e+02
431.003192262110645	2.982222e+02
432.002096823281761	2.982212e+02
433.002905520767285	2.982201e+02
434.002743586778649	2.982190e+02
435.001598115112131	2.982179e+02
436.002450546028285	2.982167e+02
437.002274018610649	2.982154e+02
438.00123964214913	2.982141e+02
439.002581082353231	2.982128e+02
440.00034304553094	2.982115e+02
441.000711121537847	2.982102e+02
442.000791936376515	2.982088e+02
443.000763219221597	2.982074e+02
444.000772919074109	2.982061e+02
445.000884165880336	2.982047e+02
446.001029749664042	2.982033e+02
447.001151974869288	2.982019e+02
448.001241680816236	2.982005e+02
449.001268228530193	2.981991e+02
450.001167695159324	2.981976e+02
451.000963059848289	2.981962e+02
452.00077597965776	2.981947e+02
453.000738236156735	2.981932e+02
454.001027357326279	2.981917e+02
455.001852708968784	2.981902e+02
456.000362500163305	2.981887e+02
457.002802758368318	2.981873e+02
458.003196003892697	2.981858e+02
459.001589567564281	2.981845e+02
460.00098547648156	2.981831e+02
461.001317918729342	2.981818e+02
462.002551842731577	2.981805e+02
463.001592478121779	2.981792e+02
464.001455217795467	2.981780e+02
465.002111883247267	2.981768e+02
466.000468289098933	2.981756e+02
467.002609795840613	2.981744e+02
468.002310318274681	2.981731e+02
469.002560530585129	2.981719e+02
470.00329489304346	2.981707e+02
471.001355056605576	2.981695e+02
472.002861665149567	2.981682e+02
473.001561964299583	2.981669e+02
474.000477716033117	2.981657e+02
475.002577107132311	2.981644e+02
476.001650410400828	2.981631e+02
477.000645408034245	2.981618e+02
478.002513955180746	2.981606e+02
479.000964559904673	2.981593e+02
480.002102581843189	2.981581e+02
481.002679955656845	2.981568e+02
482.002597945267041	2.981556e+02
483.001691264800741	2.981543e+02
484.003071616693262	2.981530e+02
485.000336484884144	2.981516e+02
486.002534780768599	2.981501e+02
487.000679987856586	2.981486e+02
488.000926511784712	2.981470e+02
489.003195732206848	2.981454e+02
490.001479003611905	2.981437e+02
491.00212356148603	2.981419e+02
492.002132362470604	2.981402e+02
493.001500802693158	2.981384e+02
494.003297433729529	2.981366e+02
495.001457005393718	2.981348e+02
496.002120008971133	2.981330e+02
497.002342414996406	2.981312e+02
498.002252693521427	2.981293e+02
499.001989458526737	2.981275e+02
500.001708245066993	2.981257e+02
501.001555817569226	2.981238e+02
502.001690502452163	2.981220e+02
503.002238115199248	2.981202e+02
504.003247695359107	2.981184e+02
505.001707145733576	2.981166e+02
506.000673200985545	2.981148e+02
507.003155603728942	2.981131e+02
508.002982725622758	2.981113e+02
509.003130399994632	2.981096e+02
510.000491607245124	2.981078e+02
511.001135291948799	2.981061e+02
512.002000839052812	2.981043e+02
513.003093595891301	2.981025e+02
514.001375092693479	2.981007e+02
515.003006471415006	2.980989e+02
516.001902983398736	2.980971e+02
517.00113814397946	2.980953e+02
518.00075119453777	2.980935e+02
519.000777966113787	2.980916e+02
520.001248976453326	2.980898e+02
521.002200030192284	2.980879e+02
522.000579121023179	2.980861e+02
523.002490070326758	2.980844e+02
524.001753540568302	2.980826e+02
525.001361205130706	2.980808e+02
526.001237747212485	2.980791e+02
527.001309431480308	2.980774e+02
528.001493181315141	2.980757e+02
529.001715178055747	2.980740e+02
530.001904340192596	2.980723e+02
531.00196343448556	2.980706e+02
532.001793707690013	2.980689e+02
533.001327526602267	2.980672e+02
534.000515034029831	2.980654e+02
535.002367044145444	2.980635e+02
536.000711501576916	2.980617e+02
537.001622505152909	2.980598e+02
538.002013323162714	2.980578e+02
539.001869981411801	2.980558e+02
540.001187906447285	2.980538e+02
541.00301284645343	2.980517e+02
542.001225556390295	2.980497e+02
543.001939955503872	2.980476e+02
544.002138172190257	2.980454e+02
545.001861443912048	2.980433e+02
546.001165266284488	2.980412e+02
547.003214520297661	2.980390e+02
548.002042364261229	2.980368e+02
549.000807701796134	2.980347e+02
550.002690842886523	2.980325e+02
551.001696376509585	2.980303e+02
552.00095231417572	2.980282e+02
553.000495569591862	2.980261e+02
554.000326524515344	2.980239e+02
555.000417894257907	2.980218e+02
556.000707039192662	2.980197e+02
557.001146167858792	2.980177e+02
558.001670994217875	2.980156e+02
559.00222091731564	2.980135e+02
560.002760948818832	2.980113e+02
561.003267246031669	2.980092e+02
562.000653783958228	2.980070e+02
563.001006832258781	2.980048e+02
564.001261448977402	2.980026e+02
565.001402261682074	2.980003e+02
566.001416486073595	2.979980e+02
567.001306958242481	2.979957e+02
568.001088612961212	2.979934e+02
569.000803998330184	2.979911e+02
570.000513052084784	2.979888e+02
571.003333279293543	2.979864e+02
572.003240577886913	2.979841e+02
573.003341665373	2.979818e+02
574.000633761695781	2.979795e+02
575.001225046059403	2.979772e+02
576.002067007635901	2.979749e+02
577.003154038258003	2.979727e+02
578.001414355188672	2.979705e+02
579.002919750008573	2.979682e+02
580.001517164221468	2.979660e+02
581.00325516689486	2.979638e+02
582.001964060623095	2.979616e+02
583.00064847655517	2.979594e+02
584.002328360885599	2.979571e+02
585.000854217341839	2.979548e+02
586.002287276351922	2.979525e+02
587.000488461651798	2.979502e+02
588.001527679578999	2.979478e+02
589.002315298506687	2.979454e+02
590.002803789777317	2.979429e+02
591.002957846933668	2.979405e+02
592.002760268551469	2.979380e+02
593.002220829564408	2.979355e+02
594.00137104636849	2.979329e+02
595.003306020155378	2.979304e+02
596.002006081209515	2.979278e+02
597.000594318263893	2.979253e+02
598.002195250785689	2.979227e+02
599.00079741509694	2.979201e+02
600.002570943578235	2.979176e+02
601.00148420696587	2.979151e+02
602.000614201649228	2.979126e+02
603.003028406803764	2.979101e+02
604.002632172737776	2.979076e+02
605.002438767518356	2.979051e+02
606.002393362230237	2.979027e+02
607.002438086213033	2.979002e+02
608.002519571093444	2.978977e+02
609.002594908682113	2.978952e+02
610.002624012444812	2.978927e+02
611.00257420861567	2.978901e+02
612.002421365504119	2.978876e+02
613.00213679326589	2.978850e+02
614.00167615978603	2.978823e+02
615.000986403274055	2.978796e+02
616.003066520229481	2.978769e+02
617.001790236667148	2.978742e+02
618.00323238198996	2.978715e+02
619.001324432529145	2.978687e+02
620.002189394859329	2.978659e+02
621.002841920595415	2.978631e+02
622.000329405845036	2.978604e+02
623.000828114200885	2.978576e+02
624.001363126197475	2.978548e+02
625.001999212751571	2.978521e+02
626.002811455402934	2.978493e+02
627.000812807797047	2.978466e+02
628.002120941783573	2.978439e+02
629.000660379468286	2.978412e+02
630.002496732039731	2.978385e+02
631.001485728012653	2.978359e+02
632.000611254987575	2.978332e+02
633.002879142806592	2.978305e+02
634.00215452979478	2.978278e+02
635.00144985084296	2.978251e+02
636.000729316717752	2.978224e+02
637.002992101190671	2.978196e+02
638.002096774484016	2.978168e+02
639.001040900436237	2.978140e+02
640.002816029723363	2.978111e+02
641.001286643090339	2.978082e+02
642.002508342155238	2.978052e+02
643.000387183283465	2.978023e+02
644.001019476991473	2.977993e+02
645.00138119775545	2.977963e+02
646.001511582870648	2.977934e+02
647.001470443425319	2.977904e+02
648.001320644557836	2.977874e+02
649.001152611644329	2.977844e+02
650.001058184863382	2.977815e+02
651.001112879885341	2.977785e+02
652.001376941501121	2.977756e+02
653.001882713741111	2.977727e+02
654.002639028376279	2.977697e+02
655.00059653067774	2.977669e+02
656.001825748615715	2.977640e+02
657.003255943966565	2.977611e+02
658.001796689725779	2.977582e+02
659.000451662621686	2.977553e+02
660.002214183532942	2.977524e+02
661.000941201797673	2.977494e+02
662.002657544463204	2.977465e+02
663.001209661177768	2.977434e+02
664.002624651474321	2.977404e+02
665.000754650585918	2.977373e+02
666.001630353567066	2.977342e+02
667.00217972459177	2.977310e+02
668.002406226015978	2.977279e+02
669.00232372110429	2.977247e+02
670.001980157356343	2.977215e+02
671.001439456151957	2.977183e+02
672.000774660785623	2.977150e+02
673.003090923646823	2.977118e+02
674.002378215482736	2.977086e+02
675.001740249950558	2.977054e+02
676.001241613566549	2.977023e+02
677.000934726724608	2.976991e+02
678.000859463897541	2.976960e+02
679.001038105607904	2.976929e+02
680.00148267492159	2.976898e+02
681.002190454100742	2.976867e+02
682.003140702194059	2.976836e+02
683.001252286197769	2.976805e+02
684.002552392043071	2.976774e+02
685.000889837356112	2.976743e+02
686.002270350528647	2.976711e+02
687.000491698132919	2.976679e+02
688.001513345133162	2.976647e+02
689.002174269811803	2.976614e+02
690.002381651788937	2.976581e+02
691.002074014340792	2.976548e+02
692.001223957157663	2.976515e+02
693.002865130120426	2.976483e+02
694.000960627566087	2.976450e+02
695.001641077637828	2.976418e+02
696.001947278799548	2.976386e+02
697.001954438943358	2.976354e+02
698.001751859282081	2.976323e+02
699.001424990838018	2.976292e+02
700.001060126672769	2.976262e+02
701.000735808054174	2.976232e+02
702.00051589429836	2.976203e+02
703.000443078107537	2.976175e+02
704.000530691453378	2.976146e+02
705.000820281969936	2.976119e+02
706.001314351650421	2.976091e+02
707.001979354264677	2.976064e+02
708.002786229473259	2.976037e+02
709.000689110405574	2.976011e+02
710.001746107919075	2.975984e+02
711.002888678424597	2.975958e+02
712.001051259757901	2.975932e+02
713.002303063747149	2.975906e+02
714.000617153685766	2.975880e+02
715.002128360187953	2.975854e+02
716.000866102343707	2.975829e+02
717.003025773334343	2.975804e+02
718.002650824618286	2.975779e+02
719.00291538587669	2.975755e+02
720.000908626739829	2.975731e+02
721.002845785912655	2.975707e+02
722.002732400403715	2.975684e+02
723.000632937977798	2.975662e+02
724.002720299904695	2.975640e+02
725.002870152834248	2.975619e+02
726.001015277557372	2.975598e+02
727.003246004096241	2.975578e+02
728.000336739341947	2.975558e+02
729.001471837233339	2.975539e+02
730.000508654512942	2.975521e+02
731.000465613191523	2.975503e+02
732.001246264715974	2.975485e+02
733.002730962938244	2.975468e+02
734.00174534823293	2.975452e+02
735.001300929002468	2.975435e+02
736.001333152989332	2.975419e+02
737.001800958035346	2.975403e+02
738.002640424345486	2.975387e+02
739.000686758884513	2.975372e+02
740.002065286095785	2.975356e+02
741.000539876149787	2.975341e+02
742.002223058589834	2.975326e+02
743.000869168341183	2.975311e+02
744.002620836175197	2.975296e+02
745.001276077878742	2.975282e+02
746.002998977686957	2.975267e+02
747.001565474570953	2.975253e+02
748.00308865028444	2.975238e+02
749.001316310788638	2.975224e+02
750.002377542097747	2.975211e+02
751.003147564523601	2.975197e+02
752.000600879765443	2.975183e+02
753.000998043582513	2.975170e+02
754.001200174667588	2.975157e+02
755.001352950524165	2.975144e+02
756.001519259219776	2.975131e+02
757.00172760349335	2.975118e+02
758.002069777718816	2.975105e+02
759.002597394304416	2.975093e+02
760.00332598021032	2.975080e+02
761.001128165737668	2.975068e+02
762.00211738048813	2.975056e+02
763.003184695211871	2.975044e+02
764.00122567358676	2.975032e+02
765.002339892151554	2.975020e+02
766.003341425051531	2.975009e+02
767.00113330953161	2.974997e+02
768.001963746901197	2.974986e+02
769.002814879129232	2.974976e+02
770.000695695723266	2.974965e+02
771.001908310314093	2.974954e+02
772.000451383534937	2.974944e+02
773.002701190260268	2.974933e+02
774.002642122073894	2.974923e+02
775.000355659727234	2.974913e+02
776.002046585157245	2.974903e+02
777.001522955016981	2.974894e+02
778.00180349698212	2.974884e+02
779.002771984601395	2.974875e+02
780.001185110501751	2.974866e+02
781.00319743229079	2.974857e+02
782.002232213636148	2.974848e+02
783.001188886448972	2.974839e+02
784.003255546205992	2.974831e+02
785.002219793728614	2.974823e+02
786.001158568383971	2.974815e+02
787.003316917500229	2.974807e+02
788.002704594378315	2.974800e+02
789.00271448426497	2.974793e+02
790.000500667548181	2.974787e+02
791.002500263538991	2.974780e+02
792.002725685865471	2.974774e+02
793.00105867474349	2.974768e+02
794.003231696071794	2.974762e+02
795.00217995913124	2.974757e+02
796.00084706608186	2.974752e+02
797.002306898335519	2.974747e+02
798.002927238574671	2.974743e+02
799.002243828781616	2.974739e+02
800.003054315067516	2.974736e+02
801.002460660682232	2.974733e+02
802.000892962395938	2.974731e+02
803.001934847738767	2.974729e+02
804.003169944647311	2.974728e+02
805.002388934436453	2.974727e+02
806.003234727337826	2.974727e+02
807.002545599438463	2.974727e+02
808.003073222708849	2.974728e+02
809.000874104377317	2.974729e+02
810.001438329710822	2.974730e+02
811.000724192746475	2.974731e+02
812.001811350291405	2.974733e+02
813.001584911601981	2.974735e+02
814.002908985482577	2.974738e+02
815.002191484871446	2.974742e+02
816.002314479856636	2.974746e+02
817.00332833277696	2.974751e+02
818.002529831151037	2.974757e+02
819.001131780883725	2.974764e+02
820.000523859089185	2.974771e+02
821.001869303840294	2.974779e+02
822.002868431506272	2.974787e+02
823.000411490107126	2.974795e+02
824.0028538801796	2.974803e+02
825.002461246023586	2.974811e+02
826.001435673517904	2.974820e+02
827.002208727034031	2.974828e+02
828.001445324308861	2.974837e+02
829.002390080048144	2.974847e+02
830.002148734814114	2.974857e+02
831.000826182495416	2.974871e+02
832.001537229391602	2.974882e+02
833.001216019813	2.974895e+02
834.003190917930056	2.974909e+02
835.001989395335613	2.974924e+02
836.001743286915143	2.974939e+02
837.003373107716243	2.974956e+02
838.001002093433044	2.974973e+02
839.003459987333031	2.974991e+02
840.003430713911143	2.975008e+02
841.002418159342483	2.975026e+02
842.002211870593328	2.975043e+02
843.002180008750088	2.975061e+02
844.002438068635001	2.975078e+02
845.000793011167275	2.975096e+02
846.001309028500827	2.975113e+02
847.001631061249782	2.975131e+02
848.002215147460333	2.975150e+02
849.003267428542358	2.975168e+02
850.001817454202637	2.975187e+02
851.001087014212658	2.975207e+02
852.001262110688685	2.975227e+02
853.002413633490278	2.975247e+02
854.001328301809053	2.975268e+02
855.000761102739261	2.975290e+02
856.003344428627656	2.975312e+02
857.002309889664502	2.975334e+02
858.003216664270326	2.975357e+02
859.002624830092486	2.975380e+02
860.003605980601151	2.975403e+02
861.003401344148756	2.975427e+02
862.002563094513675	2.975451e+02
863.001530872641638	2.975476e+02
864.000700317348105	2.975501e+02
865.003313293546512	2.975528e+02
866.003356767872106	2.975555e+02
867.001023012084943	2.975582e+02
868.002636928759898	2.975611e+02
869.002242569296186	2.975639e+02
870.003085279427523	2.975668e+02
871.002109939725756	2.975698e+02
872.002160178441727	2.975727e+02
873.003025472852869	2.975757e+02
874.001489297933631	2.975787e+02
875.000624780896374	2.975817e+02
876.003448335902476	2.975847e+02
877.000696348402357	2.975878e+02
878.001714670755291	2.975910e+02
879.003434283216393	2.975942e+02
880.002683283840497	2.975974e+02
881.002490690940817	2.976007e+02
882.002786256044601	2.976040e+02
883.003502278200585	2.976073e+02
884.001434395993442	2.976107e+02
885.002711487432975	2.976142e+02
886.001032033246247	2.976177e+02
887.002544366582015	2.976212e+02
888.000944684132151	2.976248e+02
889.002396342678708	2.976284e+02
890.000618753914978	2.976321e+02
891.001783740825772	2.976358e+02
892.002770345493445	2.976395e+02
893.003675833668353	2.976434e+02
894.001387629840451	2.976472e+02
895.002060431334485	2.976511e+02
896.002626559788951	2.976551e+02
897.003166886834492	2.976591e+02
898.000697706219171	2.976631e+02
899.001597351107762	2.976672e+02
900.002855969314737	2.976713e+02
901.001417901727336	2.976755e+02
902.003387976814906	2.976797e+02
903.002316322866591	2.976840e+02
904.001083601684854	2.976883e+02
905.002646265454587	2.976926e+02
906.000680212167936	2.976970e+02
907.001284912299752	2.977014e+02
908.001389247912471	2.977058e+02
909.001035666576286	2.977103e+02
910.00327538986312	2.977148e+02
911.001875765191471	2.977193e+02
912.003106307705366	2.977239e+02
913.000856243580415	2.977285e+02