# Region type : patch node2U_6_Outlet_0
#   Faces  : 184
#   Area   : 1.734797e-02
#        Time	areaAverage(T)
     0.999427	3.001500e+02
      2.00049	3.001500e+02
      3.00031	3.001500e+02
      3.99974	3.001500e+02
     4.999837	3.001500e+02
      6.00101	3.001500e+02
     7.000448	3.001500e+02
     8.000372	3.001500e+02
     9.000012	3.001500e+02
   10.0011397	3.001500e+02
   11.0005125	3.001584e+02
   12.0006256	3.001667e+02
   13.0011117	3.001744e+02
   13.9997545	3.001809e+02
 14.999678163	3.001870e+02
 15.999607758	3.001935e+02
 17.001423079	3.002003e+02
 18.000125537	3.002075e+02
 19.000241824	3.002149e+02
20.0017637999	3.002224e+02
20.9996095701	3.002301e+02
22.0019702438	3.002379e+02
 22.999320956	3.002457e+02
24.0004117324	3.002535e+02
25.001912685444	3.002613e+02
26.000815381156	3.002691e+02
27.000616308207	3.002769e+02
28.001753186764	3.002847e+02
29.00103025218	3.002925e+02
30.00096884102414	3.003003e+02
31.0010466924629	3.003078e+02
32.00076191534071	3.003156e+02
32.99994752892779	3.003234e+02
34.00185910390489	3.003311e+02
35.00094148549404	3.003388e+02
36.0007323908276	3.003465e+02
37.00168518983952	3.003541e+02
38.00099208641546	3.003616e+02
39.00157851096972	3.003690e+02
39.9996303786337393	3.003763e+02
41.0004953412502999	3.003835e+02
42.0009070206368165	3.003907e+02
43.0008319248529602	3.003980e+02
44.0005488391913389	3.004053e+02
45.0006530563491651	3.004126e+02
46.0017181984809156	3.004200e+02
47.0009495583614481	3.004275e+02
48.0018396077909131	3.004351e+02
49.0015515004562801	3.004427e+02
49.9999329171132274	3.004504e+02
50.9997297372635359	3.004581e+02
52.0007723885163031	3.004658e+02
52.9999861900431952	3.004736e+02
54.0004187036915866	3.004814e+02
55.0020986480979488	3.004892e+02
56.0018978015979485	3.004970e+02
56.9997709032349675	3.005049e+02
58.0017761736346387	3.005128e+02
59.0015984460411929	3.005207e+02
60.0021521568440548	3.005286e+02
61.000098740020384	3.005366e+02
62.0012673557279967	3.005446e+02
63.0022013247344859	3.005526e+02
63.9994497110408744	3.005606e+02
65.002054107660129	3.005687e+02
66.0007129160335353	3.005768e+02
67.001732642028287	3.005849e+02
68.0022184161371825	3.005930e+02
69.0023282304698569	3.006012e+02
70.0020967323733316	3.006094e+02
71.0014626894989078	3.006175e+02
72.000347206961905	3.006258e+02
73.001814536130297	3.006340e+02
73.999803696464312	3.006422e+02
75.0005142580166506	3.006505e+02
76.0009472599216451	3.006588e+02
77.0010967364421219	3.006671e+02
78.0008778649198149	3.006754e+02
79.0002325173825	3.006838e+02
80.0023181581406391	3.006921e+02
81.0010950209574219	3.007005e+02
81.9997182112844456	3.007088e+02
83.0013300977933284	3.007172e+02
83.9999391470229	3.007256e+02
85.0018435010252347	3.007340e+02
86.0008606208824204	3.007423e+02
86.9999880338603901	3.007507e+02
88.0020037995171407	3.007591e+02
89.0004046785960838	3.007675e+02
90.0010837849391692	3.007760e+02
91.0008285090756743	3.007844e+02
91.9994646174541089	3.007929e+02
93.0000853875089604	3.008014e+02
93.9995910128285601	3.008099e+02
95.0012163098537314	3.008184e+02
96.0020133773239053	3.008270e+02
97.0020574698554583	3.008356e+02
98.0014642115947225	3.008442e+02
99.0003686226269366	3.008529e+02
100.001947089189784	3.008616e+02
101.000271179902313	3.008702e+02
102.001523406674536	3.008789e+02
102.99969570444479	3.008876e+02
104.000908865614974	3.008964e+02
105.002152263136153	3.009051e+02
106.000378067992287	3.009138e+02
107.00163414543087	3.009226e+02
107.999820550515125	3.009313e+02
109.000984406227602	3.009401e+02
110.002068239247023	3.009488e+02
111.00001858391191	3.009576e+02
112.000888836224746	3.009663e+02
113.001617997014293	3.009751e+02
114.002209263695818	3.009838e+02
114.99960718464024	3.009925e+02
115.999872131530168	3.010012e+02
116.999973228238687	3.010099e+02
117.999915759184802	3.010186e+02
118.999696297663988	3.010273e+02
120.002346978990104	3.010359e+02
121.001802203412097	3.010446e+02
122.001089430002338	3.010531e+02
123.000195781257958	3.010617e+02
124.002145808338966	3.010703e+02
125.00086390218344	3.010787e+02
126.002399932855283	3.010872e+02
127.000675423971757	3.010956e+02
128.001718892295969	3.011041e+02
129.002474220212093	3.011124e+02
129.999899023642627	3.011207e+02
131.000022883252541	3.011290e+02
131.99980357745423	3.011372e+02
133.002201975843775	3.011453e+02
134.00121011720671	3.011534e+02
134.999895059076891	3.011614e+02
136.001354881184824	3.011693e+02
136.999671981025131	3.011772e+02
138.001014733980639	3.011849e+02
138.999511912610359	3.011926e+02
140.001372693757475	3.012002e+02
141.000721369328062	3.012077e+02
142.000678826319387	3.012151e+02
143.001410269753791	3.012224e+02
144.000025124920398	3.012295e+02
144.999619595327431	3.012366e+02
146.0002268439452	3.012435e+02
147.001934284146188	3.012504e+02
148.00171385002426	3.012571e+02
148.999570758778503	3.012637e+02
150.001460268790225	3.012703e+02
151.001471625160036	3.012767e+02
151.999643271126928	3.012831e+02
153.002234693194737	3.012895e+02
154.000017083123623	3.012958e+02
155.002075368657557	3.013022e+02
156.002171319720389	3.013085e+02
157.000201221534894	3.013149e+02
158.002214270236891	3.013213e+02
159.002025935581884	3.013277e+02
159.999611888222489	3.013341e+02
161.001110797304506	3.013406e+02
162.000431518502523	3.013471e+02
163.000598996626394	3.013537e+02
164.001657526757469	3.013605e+02
165.000611927010681	3.013673e+02
166.000636570257399	3.013743e+02
167.001966936224989	3.013814e+02
168.001524024576383	3.013886e+02
168.999535062912372	3.013960e+02
170.002373244580212	3.014034e+02
171.000526233348893	3.014108e+02
171.999938935686771	3.014183e+02
173.000419891909644	3.014257e+02
174.001722928412619	3.014330e+02
175.000512625435874	3.014403e+02
175.999767070886492	3.014475e+02
176.99954079770464	3.014547e+02
178.000007481480537	3.014618e+02
179.001172133937928	3.014688e+02
179.999682450687942	3.014758e+02
181.001635694069051	3.014827e+02
182.000592152761328	3.014894e+02
182.999519896950915	3.014961e+02
184.00124781430452	3.015028e+02
185.002486385811778	3.015095e+02
186.000255045406107	3.015163e+02
187.001127013245792	3.015231e+02
188.002072581649884	3.015300e+02
188.999892205631966	3.015369e+02
190.000705973510435	3.015439e+02
191.001383975613464	3.015510e+02
192.002166445431158	3.015580e+02
193.000098668779714	3.015649e+02
194.001181195154828	3.015718e+02
195.001620137572985	3.015785e+02
196.001178650808271	3.015851e+02
197.000350796765275	3.015915e+02
197.999660542726929	3.015977e+02
199.002335025356558	3.016036e+02
200.001935586922144	3.016092e+02
201.001414943333913	3.016144e+02
202.000868928127431	3.016194e+02
202.999997842964206	3.016240e+02
204.0016310147914	3.016285e+02
205.002166413694084	3.016327e+02
206.001116309208413	3.016368e+02
207.001381956321211	3.016406e+02
207.9998943985035	3.016442e+02
208.999583940723255	3.016478e+02
209.99984336437123	3.016512e+02
211.000998253438354	3.016547e+02
212.000320780333084	3.016582e+02
213.000148791994746	3.016616e+02
214.000519730077229	3.016650e+02
215.000147433256899	3.016682e+02
216.001291672560797	3.016713e+02
217.001249723514121	3.016742e+02
218.002346265045077	3.016769e+02
219.001117517151101	3.016794e+02
220.000179332863723	3.016818e+02
221.001984233296611	3.016840e+02
222.000019298464537	3.016860e+02
223.000472483728515	3.016878e+02
224.000035929419795	3.016893e+02
225.001538814148404	3.016907e+02
226.002232348217717	3.016918e+02
227.002169872115275	3.016927e+02
228.000958699243625	3.016935e+02
229.001727466383443	3.016940e+02
230.001349947985972	3.016945e+02
230.99980440953388	3.016948e+02
232.000658677140137	3.016950e+02
233.000406829737074	3.016952e+02
234.001889288894915	3.016954e+02
234.999987857891028	3.016957e+02
236.000824748772231	3.016961e+02
237.00126402941325	3.016966e+02
238.001397825822721	3.016972e+02
239.001659752754847	3.016980e+02
240.002266841204374	3.016989e+02
241.000261468869382	3.016998e+02
242.001944879210811	3.017009e+02
243.001454555426477	3.017020e+02
244.001972006663124	3.017031e+02
245.000650011113038	3.017042e+02
246.000794019596583	3.017053e+02
246.999515043074808	3.017064e+02
247.999991685574656	3.017076e+02
249.002356430929581	3.017087e+02
250.000565355472645	3.017099e+02
251.000732934448166	3.017110e+02
251.999708502626078	3.017122e+02
253.000512989818787	3.017133e+02
253.999885102590099	3.017143e+02
255.001070266916685	3.017153e+02
256.000839560378154	3.017162e+02
257.002428650690433	3.017170e+02
257.999811689606702	3.017176e+02
259.001750639557088	3.017182e+02
260.001118134239789	3.017185e+02
261.0003499609453	3.017187e+02
262.002242301688852	3.017187e+02
263.00038849849949	3.017185e+02
264.000905347231651	3.017179e+02
265.000507148832071	3.017171e+02
266.001962269527269	3.017162e+02
267.001916114889923	3.017150e+02
268.000509559255079	3.017138e+02
269.000928206782703	3.017125e+02
270.000007865947964	3.017113e+02
271.000424375674072	3.017104e+02
272.001918020223684	3.017096e+02
273.001711716248963	3.017091e+02
274.000259563707004	3.017087e+02
275.001150352234959	3.017083e+02
276.001368364580856	3.017079e+02
277.000464361424179	3.017073e+02
278.001159856900301	3.017065e+02
279.000440219970642	3.017055e+02
280.001416704900123	3.017043e+02
281.001363233582481	3.017030e+02
282.000450491904587	3.017015e+02
283.001441506528238	3.016999e+02
284.000898257364383	3.016983e+02
285.001884224806759	3.016968e+02
286.001695158509449	3.016953e+02
287.00083686584918	3.016941e+02
287.999779922023777	3.016932e+02
289.00217000750348	3.016926e+02
289.999818932370886	3.016924e+02
291.002390998074702	3.016924e+02
292.000324383956922	3.016926e+02
293.002281315476978	3.016928e+02
294.001828078367453	3.016928e+02
295.001611671774583	3.016925e+02
296.001314901285866	3.016919e+02
297.00088689875497	3.016913e+02
298.00038530568753	3.016907e+02
298.99979428595401	3.016901e+02
300.002174996140184	3.016895e+02
301.001629792814299	3.016888e+02
302.001459111373606	3.016881e+02
303.001930965865313	3.016873e+02
304.000231942945902	3.016865e+02
304.999558167453529	3.016858e+02
305.999740373459133	3.016850e+02
307.00049372421114	3.016842e+02
308.001623502406176	3.016833e+02
308.999886381099657	3.016823e+02
310.001413061204403	3.016811e+02
311.000237423209796	3.016799e+02
311.999647676510733	3.016785e+02
312.999797447474521	3.016771e+02
314.00077313436168	3.016757e+02
314.999478399374595	3.016744e+02
316.001990115735566	3.016731e+02
317.001905398249903	3.016719e+02
318.002171419029537	3.016708e+02
318.999812552419371	3.016699e+02
320.001245077814531	3.016692e+02
321.00032755763084	3.016686e+02
321.999810468384169	3.016680e+02
322.99953236046241	3.016675e+02
324.002261250268589	3.016668e+02
325.00131355461167	3.016660e+02
325.999607697640556	3.016649e+02
327.000043180232751	3.016634e+02
328.002412231241237	3.016615e+02
329.000458313912361	3.016592e+02
330.000575270518993	3.016566e+02
330.99988426793476	3.016537e+02
332.001383612835525	3.016506e+02
333.002008264080985	3.016476e+02
334.00191188491641	3.016447e+02
335.00115025317632	3.016419e+02
335.999693180028885	3.016393e+02
337.000793258894248	3.016369e+02
338.001952926178944	3.016347e+02
339.000304708887768	3.016328e+02
340.002014322204161	3.016311e+02
341.001025424621218	3.016296e+02
342.00024299366703	3.016284e+02
342.999464099637976	3.016272e+02
344.001543545480956	3.016261e+02
345.000291069840671	3.016250e+02
346.001795610644365	3.016238e+02
346.999927843140654	3.016225e+02
348.000987026071982	3.016212e+02
349.002165312943305	3.016197e+02
350.000459537454105	3.016181e+02
351.001932414771431	3.016163e+02
352.000442991369937	3.016143e+02
353.002185159184023	3.016121e+02
354.000931348699794	3.016098e+02
354.999606586708012	3.016072e+02
356.001242268716737	3.016046e+02
356.99973038914743	3.016018e+02
358.001176667245943	3.015990e+02
358.99945403706937	3.015962e+02
360.000768690903158	3.015936e+02
361.002189686773875	3.015911e+02
362.000773394692033	3.015889e+02
362.999684936947801	3.015869e+02
364.002107137089581	3.015852e+02
365.002007967804445	3.015838e+02
365.999470042928806	3.015825e+02
367.000687280871944	3.015814e+02
367.999530951051156	3.015804e+02
369.002067429825445	3.015793e+02
370.001889301599874	3.015782e+02
371.001790006237911	3.015770e+02
372.001657672861313	3.015756e+02
373.001395802476452	3.015740e+02
374.000962132299151	3.015722e+02
375.000382853457552	3.015701e+02
375.999792565119492	3.015677e+02
377.002436551305266	3.015651e+02
378.002318536379676	3.015624e+02
378.999502150836918	3.015595e+02
380.000040843411853	3.015566e+02
381.000627384820518	3.015537e+02
382.001002752364514	3.015509e+02
383.00115669650495	3.015482e+02
384.001362274559426	3.015458e+02
385.001836803982656	3.015436e+02
385.999673120352725	3.015418e+02
387.001085723101198	3.015401e+02
387.999674785773095	3.015387e+02
389.001503394841222	3.015374e+02
390.000277953550949	3.015361e+02
391.001992424886225	3.015348e+02
392.000294823884644	3.015333e+02
393.001073367511026	3.015316e+02
394.001031081924282	3.015295e+02
395.000083225457615	3.015270e+02
396.001391167296504	3.015240e+02
397.002142969087799	3.015206e+02
398.002486927678831	3.015169e+02
399.002454552175777	3.015130e+02
400.001999540525617	3.015090e+02
401.000839329190683	3.015050e+02
402.001818410464637	3.015010e+02
403.001560964542819	3.014970e+02
403.999786884809168	3.014931e+02
404.999724608758868	3.014893e+02
406.002155654581145	3.014857e+02
407.001519020125158	3.014824e+02
408.001202559612636	3.014795e+02
409.001369975461614	3.014770e+02
410.002043393628696	3.014747e+02
410.999972389979689	3.014727e+02
412.001170458417903	3.014708e+02
412.999627710769573	3.014690e+02
414.001692730684454	3.014673e+02
415.001429484919584	3.014655e+02
416.001825319840179	3.014637e+02
416.999635767361269	3.014619e+02
418.000859963892083	3.014598e+02
419.002365467976858	3.014576e+02
420.001016045350354	3.014552e+02
420.999914896541213	3.014526e+02
422.002133010558055	3.014498e+02
423.001501058126678	3.014467e+02
424.001069151508716	3.014435e+02
425.000824954660288	3.014400e+02
426.000668953435365	3.014364e+02
427.000478133099705	3.014328e+02
428.000310505721586	3.014292e+02
429.000300211275032	3.014258e+02
430.00050079737332	3.014226e+02
431.000971266033559	3.014198e+02
432.001782535379562	3.014173e+02
432.999925628943629	3.014151e+02
434.001561009992656	3.014132e+02
435.000563914871123	3.014115e+02
435.999970321399474	3.014099e+02
436.999630166304769	3.014083e+02
438.002466683619161	3.014067e+02
439.002192183795387	3.014049e+02
440.001688224110467	3.014028e+02
441.000709643122434	3.014005e+02
442.002232338345664	3.013977e+02
443.000112582989857	3.013946e+02
444.000667855841584	3.013910e+02
445.001001007242792	3.013871e+02
446.001186836704903	3.013829e+02
447.001232704298559	3.013786e+02
448.000910513210442	3.013742e+02
449.000011552115325	3.013698e+02
450.00110361713098	3.013653e+02
451.000822641461355	3.013609e+02
452.002366066913225	3.013565e+02
453.000011650833812	3.013525e+02
454.000108872903866	3.013487e+02
455.000233422348913	3.013453e+02
456.000785399313656	3.013423e+02
457.001850476985567	3.013396e+02
458.000289331378383	3.013371e+02
459.002052251780583	3.013349e+02
460.001104160380521	3.013328e+02
461.000605394844229	3.013307e+02
462.000647284535148	3.013286e+02
463.001173175470285	3.013264e+02
464.00204395615998	3.013241e+02
465.000109990166891	3.013215e+02
466.001419342150768	3.013187e+02
466.999665365169903	3.013156e+02
468.000946758895623	3.013122e+02
469.00234917832978	3.013085e+02
470.000864960320541	3.013045e+02
471.002477313541476	3.013003e+02
472.000846115626814	3.012958e+02
473.001921648078792	3.012911e+02
473.999450733767674	3.012864e+02
475.002485419731613	3.012817e+02
476.001736261685664	3.012771e+02
477.000260252070859	3.012727e+02
478.001290283438777	3.012687e+02
479.002008661757372	3.012651e+02
479.999562910336579	3.012618e+02
481.000322084070604	3.012589e+02
482.001520182046136	3.012564e+02
483.000129708258498	3.012541e+02
484.002359095712279	3.012520e+02
485.002231876276539	3.012499e+02
485.999765812743988	3.012478e+02
487.000864815357943	3.012456e+02
488.002170062228913	3.012431e+02
489.00045954244689	3.012404e+02
490.001794625150296	3.012374e+02
491.000023860958038	3.012340e+02
492.001336155991623	3.012303e+02
492.999710818571032	3.012262e+02
494.001329079959532	3.012219e+02
494.999968105950188	3.012173e+02
496.001562342131649	3.012124e+02
496.999754554658693	3.012075e+02
498.000257974445901	3.012024e+02
498.999633121729119	3.011974e+02
500.000600046659713	3.011925e+02
501.000301677009986	3.011878e+02
502.002412948044253	3.011835e+02
503.001270200884846	3.011795e+02
504.000282790935785	3.011760e+02
504.999706850163989	3.011728e+02
505.999664625479113	3.011699e+02
507.000112705771187	3.011673e+02
508.001079532326344	3.011649e+02
508.999694129455179	3.011625e+02
510.002150127088953	3.011601e+02
511.002218394323165	3.011576e+02
511.999617029439776	3.011550e+02
513.000336886104947	3.011521e+02
514.001282186812773	3.011488e+02
515.002424232829867	3.011453e+02
516.000697486192735	3.011413e+02
517.002277367944544	3.011371e+02
518.001087041363917	3.011325e+02
519.000070186908943	3.011275e+02
520.002061922669782	3.011223e+02
521.000512523646989	3.011169e+02
522.001053482481552	3.011113e+02
523.00007566929969	3.011057e+02
524.00040467210556	3.011002e+02
525.002202554868177	3.010949e+02
525.999694312942552	3.010899e+02
526.999458637387761	3.010853e+02
528.002023008216497	3.010812e+02
529.001696489106394	3.010774e+02
530.001685071507382	3.010741e+02
531.002105257858034	3.010711e+02
532.000102648962866	3.010683e+02
533.002010846639109	3.010657e+02
534.001793663617718	3.010631e+02
535.00238793895619	3.010604e+02
536.000543394840406	3.010576e+02
537.00221616204044	3.010545e+02
538.001316173628652	3.010512e+02
539.000898988117228	3.010476e+02
540.000958099782565	3.010435e+02
541.001466161834855	3.010392e+02
542.002421923823476	3.010345e+02
543.000713570675316	3.010294e+02
544.002193041538362	3.010240e+02
545.000406429081409	3.010183e+02
546.00095340545306	3.010125e+02
547.00021874262427	3.010066e+02
548.000745048939393	3.010007e+02
549.002445044088745	3.009950e+02
549.999562917941262	3.009896e+02
551.001704629471192	3.009846e+02
552.000285762018734	3.009800e+02
553.001876807178064	3.009758e+02
554.000655055405559	3.009721e+02
554.999829365842629	3.009687e+02
555.999567795011444	3.009656e+02
557.000175434605808	3.009627e+02
558.001793394211631	3.009598e+02
559.00131092580159	3.009569e+02
560.001546083334915	3.009539e+02
561.002386530925833	3.009507e+02
562.000729949413312	3.009472e+02
562.999653645662534	3.009433e+02
564.00229373021466	3.009391e+02
564.999475585275604	3.009346e+02
566.000311189876584	3.009296e+02
567.001666591151775	3.009243e+02
568.000307677030833	3.009187e+02
569.001989843350998	3.009127e+02
570.000023661687237	3.009065e+02
570.999700393102785	3.009002e+02
572.000439015618099	3.008939e+02
573.002230577215073	3.008877e+02
574.002266792418823	3.008818e+02
575.000829058087334	3.008763e+02
576.001393769855326	3.008711e+02
577.001472104321579	3.008665e+02
578.001635884421603	3.008622e+02
579.002225501488283	3.008584e+02
580.000387462350659	3.008549e+02
581.002380412888328	3.008516e+02
582.002327348264998	3.008485e+02
583.000205700019592	3.008453e+02
584.001947425262415	3.008420e+02
585.001403597161357	3.008384e+02
586.001610182698755	3.008347e+02
586.999474569159929	3.008306e+02
588.001157742226951	3.008262e+02
589.000631909316667	3.008215e+02
590.000920806390923	3.008164e+02
591.001864889442004	3.008109e+02
592.000226401013947	3.008051e+02
593.001883186344003	3.007989e+02
594.000098638576901	3.007925e+02
595.000086811843175	3.007859e+02
596.001196695657427	3.007793e+02
597.000336537858743	3.007728e+02
598.000764526629723	3.007665e+02
598.999522899176213	3.007605e+02
599.99982476013588	3.007549e+02
601.002285755532398	3.007497e+02
602.001591538951516	3.007450e+02
603.001281703943391	3.007407e+02
604.001616661409116	3.007368e+02
604.999745050567526	3.007332e+02
606.001895755989949	3.007296e+02
607.001981525184647	3.007261e+02
607.999884555359131	3.007224e+02
609.001675652836298	3.007186e+02
610.001269377164135	3.007145e+02
611.001645590090448	3.007102e+02
611.999754677846681	3.007055e+02
613.001761147372122	3.007006e+02
614.001546520031638	3.006952e+02
615.002035165274378	3.006896e+02
616.000039708262875	3.006836e+02
617.001462896928274	3.006772e+02
617.999515416417125	3.006706e+02
618.999470065691867	3.006639e+02
620.000805606669473	3.006570e+02
621.000240791944179	3.006503e+02
622.000838850833702	3.006438e+02
622.999656623172655	3.006376e+02
623.999766480964695	3.006318e+02
625.001803129988502	3.006264e+02
626.000317040151231	3.006214e+02
627.001683696620375	3.006165e+02
628.000315543485499	3.006123e+02
629.002561217216908	3.006084e+02
630.002438879278088	3.006048e+02
631.002955673773158	3.006012e+02
632.001012629589809	3.005977e+02
633.002699473447251	3.005941e+02
634.001889312937465	3.005903e+02
635.001553274005119	3.005865e+02
636.001736588772701	3.005825e+02
637.002452317897564	3.005784e+02
638.000595801157715	3.005742e+02
639.002197008557346	3.005699e+02
640.001032774407008	3.005654e+02
641.002958105666721	3.005607e+02
642.001641230730115	3.005560e+02
643.002930592774305	3.005512e+02
644.000536261087632	3.005464e+02
645.000400906263053	3.005417e+02
646.002403030734968	3.005372e+02
647.000428710698316	3.005329e+02
648.000698545681189	3.005289e+02
649.000499989700188	3.005253e+02
650.003277544149341	3.005222e+02
651.000378245951083	3.005194e+02
652.001269812120313	3.005170e+02
653.003251301835121	3.005150e+02
654.00039499311265	3.005131e+02
655.001834081739048	3.005115e+02
656.001407575095755	3.005099e+02
657.002107554136728	3.005084e+02
658.000810264371694	3.005070e+02
659.000585027827697	3.005057e+02
660.001440115899527	3.005043e+02
661.000279426955217	3.005030e+02
662.003236992262941	3.005018e+02
663.001194083112182	3.005005e+02
664.000315549291145	3.004991e+02
665.000678853412523	3.004978e+02
666.002406258324299	3.004965e+02
667.002517167895007	3.004952e+02
668.000983778476439	3.004940e+02
669.000775934492253	3.004929e+02
670.00169892973895	3.004920e+02
671.000584711122087	3.004914e+02
672.000405870367331	3.004909e+02
673.001034998789009	3.004907e+02
674.002207470605072	3.004906e+02
675.000366758409314	3.004905e+02
676.001163021949083	3.004905e+02
677.000851495268762	3.004905e+02
678.001914457235216	3.004903e+02
679.001062991906679	3.004900e+02
680.001497095162676	3.004894e+02
681.00051293938543	3.004886e+02
682.001949242616547	3.004876e+02
683.000307428148062	3.004864e+02
684.002000574079375	3.004852e+02
685.001080216755781	3.004841e+02
686.001043964556743	3.004833e+02
687.002317362028862	3.004829e+02
688.00198630270188	3.004829e+02
689.003310225097039	3.004832e+02
690.003069391481517	3.004839e+02
691.001489026205945	3.004849e+02
692.001466734477731	3.004861e+02
693.001521395924215	3.004874e+02
694.000843959614485	3.004886e+02
695.00174722867348	3.004898e+02
696.000258784699326	3.004909e+02
697.002035589103343	3.004920e+02
698.000951547002842	3.004930e+02
699.000634646862295	3.004940e+02
700.002415252430978	3.004947e+02
701.001919582793789	3.004952e+02
702.003169270331341	3.004956e+02
703.000290042589882	3.004961e+02
704.002752621482614	3.004969e+02
705.001068226338248	3.004981e+02
706.001170381890347	3.004997e+02
707.003024585313028	3.005016e+02
708.000841218370624	3.005037e+02
709.003096664100667	3.005059e+02
710.001867467065381	3.005081e+02
711.001900809525296	3.005101e+02
712.002230525301115	3.005120e+02
713.002616782116434	3.005138e+02
714.003153813684435	3.005154e+02
715.002230783905134	3.005169e+02
716.001449405971812	3.005182e+02
717.002198600861902	3.005194e+02
718.002608436556102	3.005206e+02
719.00084155514071	3.005217e+02
720.00034254503862	3.005228e+02
721.003243936275453	3.005240e+02
722.001915774100667	3.005251e+02
723.001868895556413	3.005260e+02
724.00148624064002	3.005269e+02
725.00179498576847	3.005280e+02
726.002897002168879	3.005291e+02
727.00311715667317	3.005301e+02
728.000286860048504	3.005311e+02
729.000736412889978	3.005321e+02
730.001335613441825	3.005331e+02
731.00226535468903	3.005342e+02
732.000344958311075	3.005352e+02
733.002581780720789	3.005361e+02
734.001590215599776	3.005371e+02
735.002510360109227	3.005380e+02
736.001119003012491	3.005388e+02
737.001391551654592	3.005397e+02
738.00306896377856	3.005406e+02
739.002326407581904	3.005417e+02
740.000887971552743	3.005427e+02
741.003218013704668	3.005435e+02
742.001481341004705	3.005442e+02
743.002872445924595	3.005449e+02
744.000994513999103	3.005457e+02
745.001899127643014	3.005468e+02
746.000416920793327	3.005480e+02
747.002640621007231	3.005495e+02
748.002178343825335	3.005510e+02
749.001337642119438	3.005525e+02
750.000390949670987	3.005541e+02
751.00119595503304	3.005558e+02
752.003305956728241	3.005577e+02
753.002766298378219	3.005596e+02
754.000487219143793	3.005616e+02
754.999128065390664	3.005636e+02
756.000699113219298	3.005657e+02
757.001166705096352	3.005679e+02
757.9990673524984	3.005701e+02
758.998830655214419	3.005723e+02
759.999774459978198	3.005747e+02
761.001845671626256	3.005772e+02
761.999234547841183	3.005798e+02
763.001897102366797	3.005826e+02
764.000474273164173	3.005856e+02
765.001089212482157	3.005886e+02
766.00031405992695	3.005916e+02
767.001331895921226	3.005947e+02
767.998939243757377	3.005978e+02
769.000348733082888	3.006010e+02
770.000346304854816	3.006041e+02
770.999690083257178	3.006073e+02
772.001694284471114	3.006103e+02
772.999525002927498	3.006132e+02
774.001447371615313	3.006160e+02
774.999573477696117	3.006189e+02
775.999130282261149	3.006218e+02
776.999804294107548	3.006249e+02
778.001913556874001	3.006282e+02
778.999821593015895	3.006317e+02
780.00029731203108	3.006355e+02
781.000357685635095	3.006394e+02
781.999688636512928	3.006433e+02
783.000736637852924	3.006473e+02
784.000328374678361	3.006513e+02
784.999532959951352	3.006554e+02
785.999595065719973	3.006595e+02
787.001474755621871	3.006636e+02
787.999503057897869	3.006675e+02
788.999637772349502	3.006714e+02
790.000263096708409	3.006752e+02
790.999859417053472	3.006790e+02
792.000469008794312	3.006830e+02
793.00178677720703	3.006870e+02
794.000983481086109	3.006912e+02
794.99902037145398	3.006956e+02
795.999854815066215	3.007002e+02
797.000675214177022	3.007050e+02
798.00141209552055	3.007099e+02
799.001867022362831	3.007149e+02
800.001828341265082	3.007199e+02
801.001338273818988	3.007251e+02
802.000899584390368	3.007302e+02
803.000859755815895	3.007354e+02
804.001487791138061	3.007406e+02
804.999638548220901	3.007457e+02
806.000962325932733	3.007509e+02
807.001436761686705	3.007561e+02
808.000323512251384	3.007614e+02
809.00042085339976	3.007668e+02
809.998953162832777	3.007723e+02
810.999747731377965	3.007780e+02
812.000445808906875	3.007837e+02
813.001717187329405	3.007896e+02
814.000996803616999	3.007955e+02
815.001483876146722	3.008016e+02
815.999943347408589	3.008077e+02
816.999292610092539	3.008139e+02
817.999422182798639	3.008202e+02
819.000088555690922	3.008266e+02
820.000915976270903	3.008330e+02
821.001627781565844	3.008394e+02
821.999024125580377	3.008459e+02
822.999456681264405	3.008523e+02
824.000137641189554	3.008588e+02
825.001193434255015	3.008653e+02
825.999397237883954	3.008718e+02
827.000763383723665	3.008784e+02
828.002079249046233	3.008850e+02
829.000246267058628	3.008916e+02
830.00154344749194	3.008982e+02
830.999966498661593	3.009049e+02
832.001856072553323	3.009117e+02
833.001041112862708	3.009184e+02
834.000563356959333	3.009252e+02
835.00031503114792	3.009320e+02
836.000166531887203	3.009389e+02
837.000009775649346	3.009458e+02
837.999784166984455	3.009528e+02
838.999471659427968	3.009599e+02
840.002204895327623	3.009670e+02
841.001838571116878	3.009741e+02
842.001533997478646	3.009812e+02
843.001348156905578	3.009884e+02
844.001352192163722	3.009956e+02
845.001617405196043	3.010029e+02
846.002206649403661	3.010102e+02
847.000045342504222	3.010176e+02
848.001393495137449	3.010250e+02
849.000066851526526	3.010325e+02
850.002283531297962	3.010400e+02
851.001806190957154	3.010475e+02
852.001667167656137	3.010551e+02
853.001720161459843	3.010628e+02
854.001760357195053	3.010705e+02
855.001618582941546	3.010782e+02
856.001231692467059	3.010860e+02
857.000630531345109	3.010938e+02
857.99996229766748	3.011016e+02
858.999400089640289	3.011095e+02
860.002184410614973	3.011174e+02
861.002150572704522	3.011254e+02
862.002463908175059	3.011334e+02
863.000066538356009	3.011415e+02
864.001232347321775	3.011496e+02
864.99970192988701	3.011577e+02
866.001726844160999	3.011659e+02
867.001286482540422	3.011741e+02
868.001722134854617	3.011823e+02
868.999880348745478	3.011906e+02
870.001935170645083	3.011989e+02
871.00153155291548	3.012073e+02
872.0017061958564	3.012157e+02
873.002356219041417	3.012241e+02
874.000232591689496	3.012325e+02
875.001540439890846	3.012409e+02
875.999910386195324	3.012493e+02
877.001481693932647	3.012578e+02
877.999885993603129	3.012662e+02
879.001263833787675	3.012746e+02
880.002358569299645	3.012830e+02
881.000190642385405	3.012913e+02
882.001048526399813	3.012997e+02
883.001775415075372	3.013081e+02
884.002395579254085	3.013164e+02
884.999657572765045	3.013247e+02
885.999789404366311	3.013330e+02
886.999646439540584	3.013413e+02
888.00237734016082	3.013496e+02
889.001756230626597	3.013579e+02
890.001077707016407	3.013662e+02
891.000482175845718	3.013745e+02
892.000062393017856	3.013829e+02
892.999780154953783	3.013914e+02
893.999524496379763	3.013999e+02
895.002367962400854	3.014086e+02
896.002059434752709	3.014175e+02
897.001876985525996	3.014264e+02
898.001892976587442	3.014354e+02
899.002072739497748	3.014444e+02
900.00226647199645	3.014532e+02
901.002219015446826	3.014618e+02
902.001877484636907	3.014701e+02
903.001448291134466	3.014782e+02
904.00081956489646	3.014859e+02
904.999870014935254	3.014934e+02
906.001502056804497	3.015007e+02
907.0021787960859	3.015078e+02
908.00142348136967	3.015148e+02
909.002361261939882	3.015217e+02
910.001701741693751	3.015284e+02
911.002025306961968	3.015352e+02
912.000084906579787	3.015418e+02
913.002387033920058	3.015485e+02
914.000174875382299	3.015551e+02