# Region type : patch node2U_0_Outlet_0
#   Faces  : 148
#   Area   : 1.734662e-02
#        Time	areaAverage(T)
     0.999427	3.031500e+02
      2.00049	3.031500e+02
      3.00031	3.031500e+02
      3.99973	3.031500e+02
      4.99982	3.031500e+02
      6.00096	3.031500e+02
      7.00036	3.031500e+02
      8.00025	3.031500e+02
      8.99988	3.031499e+02
    10.001085	3.031498e+02
    11.000692	3.031619e+02
    12.001192	3.031739e+02
    12.999654	3.031858e+02
    14.001553	3.031978e+02
  15.00191378	3.032096e+02
  15.99990726	3.032213e+02
  17.00021302	3.032328e+02
  18.00201162	3.032442e+02
    19.001665	3.032556e+02
 20.001063064	3.032669e+02
 21.000223408	3.032782e+02
 22.000868674	3.032894e+02
 22.999568146	3.033006e+02
  24.00203262	3.033119e+02
25.00206209729	3.033231e+02
25.9997240433	3.033343e+02
27.00155800819	3.033456e+02
28.00198841907	3.033568e+02
29.00100132413	3.033681e+02
30.0012255059946	3.033793e+02
31.0020125996283	3.033905e+02
31.9997203434261	3.034017e+02
33.0000159367413	3.034129e+02
33.9999993471484	3.034240e+02
35.0001409482367123	3.034351e+02
36.0010399662744121	3.034462e+02
37.000256075600312	3.034571e+02
38.0011334139074748	3.034680e+02
39.0001093232681626	3.034789e+02
39.9994296677075454	3.034897e+02
41.001577972869228	3.035005e+02
42.000199945820512	3.035113e+02
43.0015357555295594	3.035221e+02
44.0000908474563985	3.035328e+02
44.999720034311153	3.035435e+02
46.0011036185372717	3.035542e+02
47.0017015365830488	3.035648e+02
48.001828578469862	3.035755e+02
49.0009987208578792	3.035862e+02
50.001646775172766	3.035970e+02
51.0004873107095733	3.036077e+02
52.0004965650810149	3.036184e+02
53.0016782245142934	3.036292e+02
54.0010911490910033	3.036400e+02
55.0018322131206503	3.036507e+02
56.0008311045826801	3.036615e+02
57.0009505745707656	3.036723e+02
58.0018173874204663	3.036831e+02
58.9998754286462415	3.036938e+02
60.0007253884735974	3.037046e+02
61.000729949421661	3.037154e+02
61.9994469747591523	3.037262e+02
62.9997307278246481	3.037370e+02
64.0016132336676264	3.037479e+02
65.0021195847200062	3.037587e+02
66.0013755148593475	3.037696e+02
66.9994618408717173	3.037804e+02
67.9995567282688285	3.037913e+02
69.0018710907051513	3.038023e+02
70.0005020403649496	3.038132e+02
71.0017759000867983	3.038242e+02
71.9997917061677697	3.038352e+02
73.0007626398363385	3.038463e+02
74.0017781164737585	3.038573e+02
74.9999419786135348	3.038684e+02
76.0015844890211554	3.038796e+02
77.00072239299773	3.038907e+02
78.0004746440082357	3.039018e+02
79.0007523688503994	3.039129e+02
80.0017080025030367	3.039240e+02
81.0004119802447349	3.039351e+02
81.9999292237897635	3.039462e+02
83.0001885797195058	3.039573e+02
84.0008505180802274	3.039684e+02
85.0015387397775584	3.039795e+02
86.0016440249805925	3.039906e+02
87.0005454702849761	3.040018e+02
88.0008545399135187	3.040129e+02
89.0021930695815655	3.040241e+02
90.0016302263138357	3.040353e+02
91.002174366868033	3.040466e+02
92.0010182300664496	3.040579e+02
93.0013450760332745	3.040692e+02
94.0003161743501465	3.040806e+02
95.0010570184568053	3.040920e+02
96.0007746328522842	3.041035e+02
96.9996630297850828	3.041150e+02
98.0009484938242394	3.041265e+02
99.0017864968606887	3.041381e+02
99.9993158549129504	3.041497e+02
100.999686726631666	3.041613e+02
101.999978489330886	3.041729e+02
103.000261993464633	3.041846e+02
104.000541499501338	3.041963e+02
105.000800443492778	3.042079e+02
106.001026051885219	3.042196e+02
107.001221026466325	3.042313e+02
108.001370521164162	3.042430e+02
109.001483834954172	3.042546e+02
110.001570880767829	3.042663e+02
111.001639397267027	3.042779e+02
112.001691850402395	3.042895e+02
113.001723550038278	3.043011e+02
114.001722531996805	3.043126e+02
115.001688189451627	3.043242e+02
116.001613455088133	3.043356e+02
117.001515885901682	3.043471e+02
118.001399825818325	3.043586e+02
119.00127979677535	3.043700e+02
120.001166177764588	3.043813e+02
121.001081732862403	3.043927e+02
122.001048584949245	3.044040e+02
123.001071870744425	3.044153e+02
124.001154706657402	3.044266e+02
125.001275712311497	3.044378e+02
126.001409099885151	3.044490e+02
127.001505571405914	3.044601e+02
128.001520918692876	3.044713e+02
129.001402911285169	3.044823e+02
130.001116511936488	3.044933e+02
131.000614246332248	3.045043e+02
131.999921018561707	3.045152e+02
133.002057892161417	3.045261e+02
134.001047481116501	3.045369e+02
134.999918542921648	3.045477e+02
136.001802808679997	3.045585e+02
137.000722192789738	3.045692e+02
137.999722857611772	3.045799e+02
139.001822047630924	3.045906e+02
140.001006477596889	3.046013e+02
141.000279937221819	3.046119e+02
141.999610839514531	3.046226e+02
143.002000997207233	3.046332e+02
144.001416430672435	3.046439e+02
145.000845281827281	3.046545e+02
146.000219852035571	3.046652e+02
146.999516132038053	3.046759e+02
148.001580804985281	3.046867e+02
149.00037623196738	3.046975e+02
150.002041994228136	3.047083e+02
151.000659972712299	3.047192e+02
151.999442445215436	3.047301e+02
153.001677289877819	3.047411e+02
154.00172177073722	3.047522e+02
154.999891828328799	3.047633e+02
155.999586603544287	3.047745e+02
157.001135382558516	3.047858e+02
158.001515024317882	3.047971e+02
159.000452904609233	3.048084e+02
160.000936841011566	3.048198e+02
160.999840760413548	3.048310e+02
162.000128449045548	3.048423e+02
163.001721118222179	3.048535e+02
164.001466615174991	3.048647e+02
164.999469516720637	3.048757e+02
166.001895769050151	3.048867e+02
166.999623230678878	3.048976e+02
168.001980176455106	3.049085e+02
168.999797111832464	3.049191e+02
169.999327931056797	3.049297e+02
171.000741704657912	3.049402e+02
172.000933317836058	3.049506e+02
172.999858258248878	3.049608e+02
174.000459309810481	3.049709e+02
174.999230964081022	3.049809e+02
176.001823974840363	3.049908e+02
177.001677528293413	3.050005e+02
178.001897432278639	3.050101e+02
178.999477284530741	3.050195e+02
180.000876929608779	3.050288e+02
181.000129702013908	3.050380e+02
182.000620718633769	3.050471e+02
182.999341833524653	3.050561e+02
183.999269602900625	3.050650e+02
185.000290159403136	3.050738e+02
185.999138254646653	3.050826e+02
187.00192819901423	3.050913e+02
188.002100753132737	3.050999e+02
188.999401948011354	3.051084e+02
190.000009576696584	3.051169e+02
191.000602512052552	3.051252e+02
192.000903248552049	3.051335e+02
193.000646632122681	3.051417e+02
193.999514181629451	3.051497e+02
195.000731162499932	3.051576e+02
196.001754937982156	3.051653e+02
197.000071045045672	3.051729e+02
198.002007170686312	3.051803e+02
199.000916881997426	3.051875e+02
199.999612353780066	3.051945e+02
201.001058917549273	3.052014e+02
202.002077889812654	3.052080e+02
202.99938204591723	3.052143e+02
204.002095543813795	3.052204e+02
205.000992474260471	3.052262e+02
205.999660504312885	3.052317e+02
207.001238886837569	3.052368e+02
207.999298004801517	3.052415e+02
208.999745348981605	3.052459e+02
210.001458903139991	3.052500e+02
211.000242198910087	3.052536e+02
212.001905389240108	3.052570e+02
213.000223120931452	3.052601e+02
214.001889103766104	3.052629e+02
215.001311938262972	3.052654e+02
216.001580318367957	3.052677e+02
217.001009526045266	3.052699e+02
218.001233887792552	3.052720e+02
219.000201883343749	3.052741e+02
220.000910902737701	3.052763e+02
220.999826318389324	3.052786e+02
221.999484042010948	3.052809e+02
222.999573556478197	3.052834e+02
223.999571260102471	3.052859e+02
224.999167544001807	3.052885e+02
226.001862355567113	3.052912e+02
227.00167849316307	3.052939e+02
228.001230841940497	3.052966e+02
229.000424212989913	3.052991e+02
229.99931272453972	3.053016e+02
231.00035149821332	3.053038e+02
232.000417678477731	3.053056e+02
232.999637483021473	3.053071e+02
234.000027860813049	3.053083e+02
235.001748350051628	3.053090e+02
235.999212579281817	3.053094e+02
237.000768684014673	3.053096e+02
238.000500060854421	3.053094e+02
238.999379413751882	3.053090e+02
240.000061065156473	3.053085e+02
240.999783874352488	3.053078e+02
241.999217412811873	3.053069e+02
243.001333347997786	3.053060e+02
244.000329816981377	3.053051e+02
244.999756118580478	3.053042e+02
245.999764393046519	3.053033e+02
247.000524241728925	3.053024e+02
247.999354188237049	3.053017e+02
248.999494081416515	3.053011e+02
250.001110696175971	3.053005e+02
251.001532993736845	3.053000e+02
252.000921614597075	3.052996e+02
252.999282849031687	3.052993e+02
253.999850497343544	3.052990e+02
255.00004543105274	3.052989e+02
256.000365920649983	3.052988e+02
257.001261638921392	3.052989e+02
257.999548103657958	3.052990e+02
258.99971364117971	3.052993e+02
260.002149025808819	3.052997e+02
261.000921947821837	3.053004e+02
261.99950686948381	3.053013e+02
263.001191272204949	3.053025e+02
263.999778419957408	3.053040e+02
265.00119059435292	3.053058e+02
265.999549940802126	3.053080e+02
267.000749356106553	3.053104e+02
268.000742203287302	3.053132e+02
269.00002621556996	3.053163e+02
270.002192130799926	3.053195e+02
271.001116008764257	3.053227e+02
271.999828284674436	3.053260e+02
273.001202936759398	3.053291e+02
274.001992594249884	3.053320e+02
274.999358152233697	3.053347e+02
276.000078489080693	3.053371e+02
277.001423281625193	3.053392e+02
277.999774269456566	3.053409e+02
279.000338809060509	3.053422e+02
279.999803239072378	3.053431e+02
281.00199923250301	3.053436e+02
282.001237742896592	3.053437e+02
283.000845865006283	3.053435e+02
284.000919283847736	3.053430e+02
285.001505169815289	3.053424e+02
286.001983379887918	3.053417e+02
287.000860649189406	3.053410e+02
287.99976925718363	3.053405e+02
289.001216652992298	3.053400e+02
289.999289276536729	3.053397e+02
291.001202684429529	3.053396e+02
292.001880769330967	3.053395e+02
293.001939873465119	3.053394e+02
294.001406762787269	3.053392e+02
294.999860841462578	3.053388e+02
296.00082332633508	3.053381e+02
296.999440942767023	3.053370e+02
297.999750996092871	3.053356e+02
299.001606963360757	3.053338e+02
300.00096349475109	3.053318e+02
300.999913314513492	3.053297e+02
302.001050523417859	3.053274e+02
303.001211162612037	3.053250e+02
304.000530831946662	3.053224e+02
304.999600659278087	3.053197e+02
306.001009509919697	3.053168e+02
307.001474429075984	3.053139e+02
308.001896955747839	3.053110e+02
309.00215953038952	3.053080e+02
310.002016522719316	3.053050e+02
311.002156067684552	3.053020e+02
312.000057874843549	3.052990e+02
313.001700906769599	3.052961e+02
314.000664442998186	3.052933e+02
314.99977162945703	3.052906e+02
316.001939997220234	3.052879e+02
317.000997667292268	3.052852e+02
317.999963426011846	3.052825e+02
319.001791186184562	3.052798e+02
320.000219021556404	3.052771e+02
321.001332443899855	3.052744e+02
322.002120766446581	3.052716e+02
322.999613956139115	3.052689e+02
324.000053809379779	3.052661e+02
325.000468122121561	3.052633e+02
326.000890696256192	3.052605e+02
327.001340404046516	3.052577e+02
328.00182603880279	3.052549e+02
328.999278542550144	3.052522e+02
329.999826816678308	3.052494e+02
331.000443477589613	3.052467e+02
332.001169817488744	3.052439e+02
333.002032037401875	3.052411e+02
333.999965515217639	3.052382e+02
335.001063632408773	3.052352e+02
335.999158109576854	3.052322e+02
337.000345463513611	3.052292e+02
338.001581848732201	3.052260e+02
338.999866861473265	3.052228e+02
340.001419974520957	3.052196e+02
341.000218753709873	3.052163e+02
341.99940043036537	3.052130e+02
343.002081691835315	3.052097e+02
344.002165716201716	3.052063e+02
344.999681204456522	3.052030e+02
346.000781392031456	3.051997e+02
346.999334514526993	3.051963e+02
348.001509094679818	3.051930e+02
349.001161782293025	3.051897e+02
350.001326394200078	3.051864e+02
351.001923782794222	3.051830e+02
351.999787371269576	3.051798e+02
353.00099769186096	3.051765e+02
353.999316873669443	3.051733e+02
355.00082920103489	3.051700e+02
355.999300697844262	3.051668e+02
357.000823793166319	3.051636e+02
357.999158030478213	3.051604e+02
359.00039992939594	3.051571e+02
360.001480671131844	3.051539e+02
360.9992815597804	3.051507e+02
361.999832472127878	3.051475e+02
362.999959745167416	3.051443e+02
363.999605892666068	3.051410e+02
365.001835951716942	3.051377e+02
366.000550017272076	3.051344e+02
367.0018850279655	3.051310e+02
367.999670433758126	3.051276e+02
369.000128039733795	3.051242e+02
370.000214705158442	3.051208e+02
370.999868519623192	3.051173e+02
371.999156450469172	3.051138e+02
373.001216022510619	3.051103e+02
373.999974084365817	3.051068e+02
375.001560862041572	3.051032e+02
375.999861740929703	3.050996e+02
377.000967028724972	3.050960e+02
378.001810983407267	3.050924e+02
378.999377343020058	3.050888e+02
379.999844133061458	3.050853e+02
381.000195256176255	3.050817e+02
382.000470770755555	3.050781e+02
383.000719578955398	3.050745e+02
384.000990581364249	3.050709e+02
385.001323372423997	3.050673e+02
386.001754888625783	3.050637e+02
386.999259078537648	3.050601e+02
387.999985820435654	3.050564e+02
389.000904470221769	3.050527e+02
390.002048686420665	3.050491e+02
391.000391269022714	3.050454e+02
392.002080357299462	3.050416e+02
393.001021889200786	3.050379e+02
394.000313761127586	3.050342e+02
394.999966805718827	3.050305e+02
396.000000737495156	3.050268e+02
397.000431194506007	3.050231e+02
398.001243466568894	3.050195e+02
398.999326681304808	3.050160e+02
400.000751341692762	3.050124e+02
400.999281060359692	3.050090e+02
402.000994149161556	3.050056e+02
402.999669211328353	3.050023e+02
404.001383904857562	3.049990e+02
404.999927130870162	3.049957e+02
406.001391002587809	3.049924e+02
406.999601684736604	3.049892e+02
408.000681472226745	3.049859e+02
409.001550340285974	3.049826e+02
410.002200812724368	3.049793e+02
410.999564337494576	3.049760e+02
411.999771379263905	3.049726e+02
412.999742635731366	3.049692e+02
413.999472666726717	3.049657e+02
415.002027021528761	3.049622e+02
416.001265735712195	3.049587e+02
417.00027961065382	3.049551e+02
418.002168361128668	3.049515e+02
419.000830570643586	3.049479e+02
419.999348062550951	3.049442e+02
421.000807412155893	3.049405e+02
422.002161809745814	3.049367e+02
423.000363478224813	3.049330e+02
424.001518449690877	3.049294e+02
424.999464893304832	3.049257e+02
426.00030369292142	3.049221e+02
427.00099127452637	3.049185e+02
428.001568160606212	3.049149e+02
429.002064812169294	3.049113e+02
429.99944102865561	3.049078e+02
430.999824061049083	3.049042e+02
432.000154087404724	3.049006e+02
433.000424325204449	3.048970e+02
434.00062092770537	3.048934e+02
435.000747573658373	3.048897e+02
436.00084101232062	3.048860e+02
437.000947099993482	3.048822e+02
438.001104957034727	3.048785e+02
439.001372516108916	3.048746e+02
440.001793093184403	3.048707e+02
440.999341095092859	3.048668e+02
442.000174895068085	3.048628e+02
443.001292886892941	3.048589e+02
443.999676892359332	3.048549e+02
445.001468249921118	3.048509e+02
446.0005412841561	3.048471e+02
446.999933551698859	3.048432e+02
447.99957269268856	3.048395e+02
448.99935313418041	3.048358e+02
449.99913949586778	3.048322e+02
451.001905425055099	3.048286e+02
452.001449724326449	3.048251e+02
453.000827018742655	3.048216e+02
454.000060016313171	3.048182e+02
455.002198157437931	3.048147e+02
456.001073655338701	3.048111e+02
456.999732738333421	3.048076e+02
458.00123783219243	3.048040e+02
458.999413706459279	3.048003e+02
460.000163836696743	3.047966e+02
461.000336822645636	3.047929e+02
462.000008779407551	3.047891e+02
462.999244201045997	3.047853e+02
464.001249828436698	3.047813e+02
465.000203846986892	3.047774e+02
465.999385247298903	3.047733e+02
467.001996124994605	3.047693e+02
468.001911059253757	3.047652e+02
469.002115217306198	3.047611e+02
469.999556206629677	3.047570e+02
471.000370882605068	3.047529e+02
472.001484397526838	3.047490e+02
472.999698394739198	3.047452e+02
474.000987097669451	3.047415e+02
475.002187011345541	3.047379e+02
476.000185397848838	3.047343e+02
477.001116975836737	3.047308e+02
478.001946023577034	3.047272e+02
478.999609814288533	3.047236e+02
480.000200582974514	3.047199e+02
481.000640765223636	3.047163e+02
482.000880314070741	3.047126e+02
483.000829945069484	3.047088e+02
484.000391984001851	3.047049e+02
484.999473983508892	3.047010e+02
486.001053223926704	3.046970e+02
487.002066538891711	3.046929e+02
487.999538386941651	3.046888e+02
488.999719400701622	3.046845e+02
489.999787496733063	3.046803e+02
490.999996222002039	3.046759e+02
492.000537937488446	3.046716e+02
493.001528185545851	3.046673e+02
494.000043348333691	3.046630e+02
494.999208302570253	3.046589e+02
496.002054096217819	3.046549e+02
496.999285033710748	3.046510e+02
497.999897188854902	3.046473e+02
499.000681167292043	3.046436e+02
500.001558474786805	3.046401e+02
500.999446010016641	3.046366e+02
502.000461577364092	3.046330e+02
503.001519412383175	3.046294e+02
503.999515874213841	3.046258e+02
505.000534591473297	3.046221e+02
506.001509888547616	3.046184e+02
507.002099204861224	3.046146e+02
508.001952459607026	3.046106e+02
509.000755663345956	3.046066e+02
510.001486862218997	3.046026e+02
511.001232487120603	3.045984e+02
512.000177563831585	3.045942e+02
513.001789287909901	3.045899e+02
514.00046415512486	3.045855e+02
514.99955479442508	3.045811e+02
515.999219044049141	3.045766e+02
516.999511772298206	3.045721e+02
518.000472374905598	3.045677e+02
519.002131619636771	3.045634e+02
520.001384632439681	3.045592e+02
521.001150454765366	3.045552e+02
522.001295794907037	3.045514e+02
523.001754521802923	3.045478e+02
523.999434406018167	3.045443e+02
525.000470145184181	3.045407e+02
526.001803413179573	3.045372e+02
527.000354396031071	3.045336e+02
527.99915328792224	3.045300e+02
529.001163035952914	3.045263e+02
529.999964345861144	3.045226e+02
531.0012454994461	3.045187e+02
532.001321133686361	3.045147e+02
532.999861796665527	3.045106e+02
534.000023953975301	3.045064e+02
535.001875234300201	3.045022e+02
535.99940115798131	3.044978e+02
536.99917090518386	3.044933e+02
538.001702907333424	3.044887e+02
539.001307213403038	3.044841e+02
540.001295571197147	3.044794e+02
541.001852747266639	3.044747e+02
542.000113862146009	3.044701e+02
542.99925261236649	3.044656e+02
543.999244945956434	3.044613e+02
544.999955860121077	3.044573e+02
546.001297232400361	3.044534e+02
547.000192963765812	3.044497e+02
547.999705276214399	3.044461e+02
548.9999173700038	3.044426e+02
550.000837994252493	3.044391e+02
550.999345650914734	3.044355e+02
552.001515635922487	3.044319e+02
553.001105488295934	3.044283e+02
554.00082469309541	3.044245e+02
555.000167760328509	3.044207e+02
556.001365889407907	3.044166e+02
557.000740602278597	3.044125e+02
558.001320209851997	3.044081e+02
559.000110213892867	3.044036e+02
560.000262559516386	3.043990e+02
560.99926184051003	3.043943e+02
562.0006160463181	3.043895e+02
563.00174009765351	3.043846e+02
564.00014104622926	3.043797e+02
564.999154569082179	3.043748e+02
566.001965079634488	3.043701e+02
566.999655573543009	3.043655e+02
568.001384470371249	3.043611e+02
569.000945280324004	3.043570e+02
570.001321185949223	3.043531e+02
570.999458110319438	3.043493e+02
572.001425298497111	3.043456e+02
573.001173122025079	3.043420e+02
574.001841467247459	3.043384e+02
575.000341047316283	3.043348e+02
575.999699363241348	3.043311e+02
576.999717356763654	3.043273e+02
577.999989358568769	3.043234e+02
578.999885849153543	3.043194e+02
580.001639232646653	3.043151e+02
581.001398899649303	3.043107e+02
582.001953020691985	3.043061e+02
583.000404394710699	3.043014e+02
584.000040789207219	3.042965e+02
585.000977102296929	3.042915e+02
586.000530345756715	3.042865e+02
586.999390607787518	3.042815e+02
588.001144122878259	3.042765e+02
589.000134475393111	3.042716e+02
589.999604690043157	3.042669e+02
590.999772563084207	3.042623e+02
592.000714664528573	3.042578e+02
592.999309139145566	3.042536e+02
594.001520821552276	3.042496e+02
595.001288064761411	3.042458e+02
596.001723137116073	3.042421e+02
596.999821477810087	3.042385e+02
598.00163901190831	3.042348e+02
599.001081933450678	3.042311e+02
600.001234037939525	3.042274e+02
601.001940910154531	3.042237e+02
601.999837888485331	3.042200e+02
603.00074770668266	3.042162e+02
604.001417181059651	3.042124e+02
605.001687215290872	3.042084e+02
606.001423520980666	3.042044e+02
607.000513557763156	3.042003e+02
608.00201169442164	3.041961e+02
609.000056043756331	3.041919e+02
610.001065509754426	3.041875e+02
610.999322067287608	3.041831e+02
612.001290099475682	3.041786e+02
613.00120910368264	3.041741e+02
613.999153626805764	3.041698e+02
615.001215520064648	3.041655e+02
616.001098613251429	3.041614e+02
617.001642391969199	3.041575e+02
617.999697263319149	3.041539e+02
619.001421452946829	3.041504e+02
620.000708426598749	3.041472e+02
621.000582813967867	3.041441e+02
622.001112512948225	3.041411e+02
622.999333074703259	3.041383e+02
624.001526337826249	3.041355e+02
625.001797992750539	3.041329e+02
626.00046178708601	3.041303e+02
627.000823918297669	3.041277e+02
627.99971611159765	3.041251e+02
629.000134610487748	3.041225e+02
630.001969376633838	3.041199e+02
631.002048189577636	3.041174e+02
632.0004285707289	3.041148e+02
633.000140181323104	3.041124e+02
634.000770489483443	3.041100e+02
635.001598749550453	3.041077e+02
636.002066656809347	3.041057e+02
637.001786905906442	3.041039e+02
637.999504703499269	3.041023e+02
639.000633690830796	3.041011e+02
639.99918786834246	3.041001e+02
641.001685653684603	3.040994e+02
641.999542269594372	3.040988e+02
642.999953332245013	3.040985e+02
644.000576416523131	3.040981e+02
645.001570642922729	3.040977e+02
645.999643539166868	3.040973e+02
647.000897338513028	3.040966e+02
647.999393108298932	3.040959e+02
649.001851529181295	3.040950e+02
649.999539178774853	3.040940e+02
651.001794109835942	3.040929e+02
651.999859218567849	3.040919e+02
652.999544433281699	3.040909e+02
653.999801568561224	3.040902e+02
654.999489441358605	3.040898e+02
656.000943333250348	3.040897e+02
657.000535376491371	3.040900e+02
658.000870871285201	3.040905e+02
659.001878863745446	3.040912e+02
660.001233104330709	3.040921e+02
661.000437464629726	3.040930e+02
662.001318534737948	3.040940e+02
662.9991663123335	3.040949e+02
664.000285830275857	3.040957e+02
665.000884472697294	3.040965e+02
666.000710235087126	3.040973e+02
667.000122997112726	3.040980e+02
668.001635112096551	3.040987e+02
669.000913257929483	3.040995e+02
669.999420760518205	3.041002e+02
670.999287944031153	3.041011e+02
672.002072327780297	3.041021e+02
673.000725547593561	3.041030e+02
674.001820541744451	3.041040e+02
675.000683714600314	3.041048e+02
675.999399580010731	3.041056e+02
677.002156536049142	3.041063e+02
678.000592297521962	3.041069e+02
679.002148617484863	3.041074e+02
680.001784788341638	3.041079e+02
680.999746126992932	3.041083e+02
682.001551099061089	3.041088e+02
683.001957194035526	3.041092e+02
683.99943363886166	3.041097e+02
684.999119040938353	3.041102e+02
686.000169280818113	3.041108e+02
687.000927326243527	3.041117e+02
688.001734230271609	3.041127e+02
689.000385540699199	3.041138e+02
690.000102986032516	3.041151e+02
691.000584174011692	3.041163e+02
692.001278119513586	3.041177e+02
692.998810184072113	3.041190e+02
694.000540359068509	3.041203e+02
694.999010773474538	3.041217e+02
695.999565635484373	3.041231e+02
697.001150977339762	3.041247e+02
698.001398222010494	3.041263e+02
698.999725805045159	3.041281e+02
700.001498724736734	3.041300e+02
700.999760782747671	3.041319e+02
702.00030560611242	3.041340e+02
703.001545842853716	3.041361e+02
703.998546867952086	3.041382e+02
705.000921811799685	3.041404e+02
705.99962011738819	3.041425e+02
706.999650543847679	3.041447e+02
708.000666672426519	3.041470e+02
708.999237894717226	3.041493e+02
710.001269207781093	3.041517e+02
711.00068407292008	3.041541e+02
711.999619119693762	3.041567e+02
713.000526590509253	3.041594e+02
713.998803280099537	3.041623e+02
715.000794775426357	3.041653e+02
715.999806607808409	3.041686e+02
717.001147277659015	3.041720e+02
717.999618727621851	3.041755e+02
719.001377582509349	3.041792e+02
719.999845347823111	3.041830e+02
721.000439443962705	3.041869e+02
721.998876129608675	3.041907e+02
722.998944888288406	3.041946e+02
724.00114311208813	3.041984e+02
724.998866032413844	3.042023e+02
726.001106170699586	3.042062e+02
727.001242939658482	3.042101e+02
727.999926591871031	3.042142e+02
728.998559988906209	3.042183e+02
730.001622066776122	3.042226e+02
731.000663074018917	3.042271e+02
731.999073254380278	3.042317e+02
732.999937744622798	3.042365e+02
733.999652488256629	3.042414e+02
735.000101756232084	3.042465e+02
735.999935767415082	3.042515e+02
737.001555677275633	3.042566e+02
737.998609831378303	3.042617e+02
739.000917515005426	3.042668e+02
739.999579389089149	3.042719e+02
741.000865824989205	3.042770e+02
742.001221721286811	3.042821e+02
742.9998251475198	3.042873e+02
743.999381362686222	3.042925e+02
745.000661640020667	3.042978e+02
745.999052092078955	3.043032e+02
746.999024049784566	3.043088e+02
748.001289256029395	3.043145e+02
748.99998594164947	3.043202e+02
750.000493470887022	3.043261e+02
751.00118734312548	3.043321e+02
752.000933119647812	3.043381e+02
752.998936581822591	3.043440e+02
754.001276251013905	3.043501e+02
754.999151737409875	3.043560e+02
755.999553005113967	3.043620e+02
756.999766152413599	3.043681e+02
757.999815231926959	3.043741e+02
758.999249365374908	3.043802e+02
760.00074675962378	3.043863e+02
761.001075912032888	3.043926e+02
762.000603060413027	3.043989e+02
763.000135315137868	3.044054e+02
764.000348738217554	3.044120e+02
765.001515277069643	3.044187e+02
766.000180917357966	3.044254e+02
766.998575464161149	3.044322e+02
767.998928480878021	3.044391e+02
769.0008602609538	3.044460e+02
770.001352425349751	3.044530e+02
771.000882636136907	3.044600e+02
771.999918369505622	3.044670e+02
772.998806968452868	3.044740e+02
774.000941714459373	3.044811e+02
775.000334162326453	3.044882e+02
776.000158078921004	3.044954e+02
777.000362560647091	3.045028e+02
778.000837514654791	3.045102e+02
779.001444253866225	3.045177e+02
779.998932096626277	3.045253e+02
780.999294900777159	3.045331e+02
781.999342827852388	3.045409e+02
782.999108211269913	3.045488e+02
783.998685302788545	3.045567e+02
785.001268894906502	3.045648e+02
786.000626433951197	3.045729e+02
786.999811633585182	3.045810e+02
787.998820800601152	3.045892e+02
789.000829230188174	3.045976e+02
789.999847145920967	3.046059e+02
790.999171168364683	3.046144e+02
791.99902125678841	3.046229e+02
792.999571968755276	3.046315e+02
794.000942685735822	3.046402e+02
795.000039267211605	3.046489e+02
795.999824847008995	3.046578e+02
797.00004227907823	3.046667e+02
798.000352229098212	3.046758e+02
799.000463290113203	3.046849e+02
800.000268040779247	3.046941e+02
800.999871383825734	3.047034e+02
801.999438918668716	3.047128e+02
802.999162635716857	3.047223e+02
803.999150184644463	3.047318e+02
804.999489574434278	3.047415e+02
806.000217659127884	3.047511e+02
807.001365643889585	3.047609e+02
807.99976032352879	3.047706e+02
809.001484647565803	3.047804e+02
810.000193134515371	3.047903e+02
810.998851293064718	3.048001e+02
812.000488119036959	3.048100e+02
812.998858862165093	3.048200e+02
814.000173863743385	3.048300e+02
815.001341913480928	3.048400e+02
815.999389005496141	3.048500e+02
817.000736505305099	3.048602e+02
817.999345361780456	3.048703e+02
819.001619323223736	3.048805e+02
820.001459451422306	3.048906e+02
820.998791650032786	3.049009e+02
821.999835648828935	3.049111e+02
823.001443597258117	3.049215e+02
824.000479166678019	3.049318e+02
825.000061539974695	3.049422e+02
826.000154788647023	3.049524e+02
827.000746153186583	3.049629e+02
827.998702254763771	3.049734e+02
829.000257981022514	3.049840e+02
829.999128928896084	3.049946e+02
831.001489294805879	3.050053e+02
832.000998249167878	3.050160e+02
833.00071269008447	3.050267e+02
834.000566630974504	3.050376e+02
835.000478943295093	3.050484e+02
836.000322319766724	3.050593e+02
836.999960958526117	3.050703e+02
837.999563778135894	3.050813e+02
838.999168539985249	3.050923e+02
839.998830256297879	3.051034e+02
840.998615871871266	3.051145e+02
842.00153524296104	3.051257e+02
843.001203686922736	3.051369e+02
844.000720130980653	3.051481e+02
845.000127664575871	3.051594e+02
845.999454980046153	3.051706e+02
846.998688989041057	3.051818e+02
848.000944380996543	3.051930e+02
848.999961869892672	3.052041e+02
849.998889864095986	3.052152e+02
851.000849864152087	3.052262e+02
851.999601594189471	3.052372e+02
853.001515988440019	3.052481e+02
854.000482909667198	3.052588e+02
854.999656519237647	3.052694e+02
855.99893769661162	3.052799e+02
857.001409319402342	3.052904e+02
858.000850150787869	3.053006e+02
859.00046238222626	3.053107e+02
860.000338609620371	3.053207e+02
861.00055942064489	3.053305e+02
862.00111120017948	3.053403e+02
862.998744885252336	3.053498e+02
863.999562963220342	3.053593e+02
865.000333438597977	3.053686e+02
866.000718484703725	3.053779e+02
867.000381215335096	3.053870e+02
867.999326859724874	3.053960e+02
869.000831713809248	3.054050e+02
869.998731560339024	3.054138e+02
870.99914408124846	3.054225e+02
871.998948856785773	3.054311e+02
873.001251550978509	3.054396e+02
873.999438886644043	3.054479e+02
874.999250714949312	3.054561e+02
876.000331079936132	3.054640e+02
876.999152904660036	3.054717e+02
877.999109606079287	3.054792e+02
879.001226105603337	3.054865e+02
880.000590679232914	3.054936e+02
881.001133877869847	3.055006e+02
882.000326707818431	3.055075e+02
882.998714442753908	3.055143e+02
883.999566477270491	3.055210e+02
884.999493633542215	3.055277e+02
886.001481871908709	3.055342e+02
886.999074026412359	3.055406e+02
888.001361691307693	3.055468e+02
888.998687333536395	3.055526e+02
889.999823340214903	3.055582e+02
891.000206741294278	3.055635e+02
892.001524768773493	3.055686e+02
892.999632733533304	3.055736e+02
893.998726334299249	3.055787e+02
895.001251636017628	3.055840e+02
895.99966766697446	3.055894e+02
897.000914273651915	3.055950e+02
897.99999523874294	3.056006e+02
899.0009590909807	3.056063e+02
900.002533407159831	3.056117e+02
901.001649579413879	3.056169e+02
902.002471845652622	3.056219e+02
903.00037772942153	3.056268e+02
904.002809723267433	3.056315e+02
904.999844958107929	3.056360e+02
905.999949295843749	3.056402e+02
907.000155261807322	3.056441e+02
908.000934451877697	3.056477e+02
909.002379459235726	3.056512e+02
910.001638080394969	3.056544e+02
911.001827591161145	3.056576e+02
912.002161111704822	3.056608e+02
913.000765935814343	3.056641e+02
914.00165379520945	3.056675e+02