# Region type : patch node2U_2_Inlet_0
#   Faces  : 148
#   Area   : 1.734765e-02
#        Time	areaAverage(T)
     0.999427	3.031500e+02
      2.00049	3.031500e+02
      3.00031	3.031500e+02
      3.99973	3.031500e+02
      4.99982	3.031500e+02
      6.00096	3.031500e+02
      7.00036	3.031500e+02
      8.00025	3.031500e+02
      8.99988	3.031500e+02
    10.001085	3.031499e+02
    11.000692	3.031498e+02
    12.001192	3.031494e+02
    12.999654	3.031453e+02
    14.001553	3.031292e+02
  15.00191378	3.031067e+02
  15.99990726	3.031010e+02
  17.00021302	3.031101e+02
  18.00201162	3.031230e+02
    19.001665	3.031339e+02
 20.001063064	3.031394e+02
 21.000223408	3.031413e+02
 22.000868674	3.031413e+02
 22.999568146	3.031403e+02
  24.00203262	3.031382e+02
25.00206209729	3.031348e+02
25.9997240433	3.031297e+02
27.00155800819	3.031235e+02
28.00198841907	3.031173e+02
29.00100132413	3.031107e+02
30.0012255059946	3.031012e+02
31.0020125996283	3.030857e+02
31.9997203434261	3.030631e+02
33.0000159367413	3.030377e+02
33.9999993471484	3.030172e+02
35.0001409482367123	3.030060e+02
36.0010399662744121	3.030026e+02
37.000256075600312	3.030025e+02
38.0011334139074748	3.030011e+02
39.0001093232681626	3.029969e+02
39.9994296677075454	3.029916e+02
41.001577972869228	3.029905e+02
42.000199945820512	3.029997e+02
43.0015357555295594	3.030230e+02
44.0000908474563985	3.030593e+02
44.999720034311153	3.031031e+02
46.0011036185372717	3.031472e+02
47.0017015365830488	3.031857e+02
48.001828578469862	3.032163e+02
49.0009987208578792	3.032392e+02
50.001646775172766	3.032556e+02
51.0004873107095733	3.032664e+02
52.0004965650810149	3.032728e+02
53.0016782245142934	3.032769e+02
54.0010911490910033	3.032805e+02
55.0018322131206503	3.032850e+02
56.0008311045826801	3.032907e+02
57.0009505745707656	3.032976e+02
58.0018173874204663	3.033057e+02
58.9998754286462415	3.033149e+02
60.0007253884735974	3.033256e+02
61.000729949421661	3.033379e+02
61.9994469747591523	3.033519e+02
62.9997307278246481	3.033674e+02
64.0016132336676264	3.033843e+02
65.0021195847200062	3.034021e+02
66.0013755148593475	3.034203e+02
66.9994618408717173	3.034386e+02
67.9995567282688285	3.034570e+02
69.0018710907051513	3.034755e+02
70.0005020403649496	3.034944e+02
71.0017759000867983	3.035139e+02
71.9997917061677697	3.035335e+02
73.0007626398363385	3.035528e+02
74.0017781164737585	3.035710e+02
74.9999419786135348	3.035875e+02
76.0015844890211554	3.036019e+02
77.00072239299773	3.036141e+02
78.0004746440082357	3.036240e+02
79.0007523688503994	3.036317e+02
80.0017080025030367	3.036377e+02
81.0004119802447349	3.036425e+02
81.9999292237897635	3.036470e+02
83.0001885797195058	3.036521e+02
84.0008505180802274	3.036587e+02
85.0015387397775584	3.036672e+02
86.0016440249805925	3.036780e+02
87.0005454702849761	3.036905e+02
88.0008545399135187	3.037042e+02
89.0021930695815655	3.037186e+02
90.0016302263138357	3.037331e+02
91.002174366868033	3.037474e+02
92.0010182300664496	3.037614e+02
93.0013450760332745	3.037750e+02
94.0003161743501465	3.037884e+02
95.0010570184568053	3.038015e+02
96.0007746328522842	3.038144e+02
96.9996630297850828	3.038271e+02
98.0009484938242394	3.038396e+02
99.0017864968606887	3.038518e+02
99.9993158549129504	3.038634e+02
100.999686726631666	3.038743e+02
101.999978489330886	3.038841e+02
103.000261993464633	3.038928e+02
104.000541499501338	3.039003e+02
105.000800443492778	3.039068e+02
106.001026051885219	3.039126e+02
107.001221026466325	3.039178e+02
108.001370521164162	3.039225e+02
109.001483834954172	3.039270e+02
110.001570880767829	3.039313e+02
111.001639397267027	3.039353e+02
112.001691850402395	3.039390e+02
113.001723550038278	3.039423e+02
114.001722531996805	3.039452e+02
115.001688189451627	3.039474e+02
116.001613455088133	3.039488e+02
117.001515885901682	3.039495e+02
118.001399825818325	3.039493e+02
119.00127979677535	3.039483e+02
120.001166177764588	3.039465e+02
121.001081732862403	3.039440e+02
122.001048584949245	3.039409e+02
123.001071870744425	3.039370e+02
124.001154706657402	3.039325e+02
125.001275712311497	3.039271e+02
126.001409099885151	3.039208e+02
127.001505571405914	3.039136e+02
128.001520918692876	3.039057e+02
129.001402911285169	3.038973e+02
130.001116511936488	3.038887e+02
131.000614246332248	3.038800e+02
131.999921018561707	3.038713e+02
133.002057892161417	3.038626e+02
134.001047481116501	3.038541e+02
134.999918542921648	3.038461e+02
136.001802808679997	3.038390e+02
137.000722192789738	3.038334e+02
137.999722857611772	3.038294e+02
139.001822047630924	3.038267e+02
140.001006477596889	3.038251e+02
141.000279937221819	3.038241e+02
141.999610839514531	3.038237e+02
143.002000997207233	3.038239e+02
144.001416430672435	3.038249e+02
145.000845281827281	3.038268e+02
146.000219852035571	3.038297e+02
146.999516132038053	3.038333e+02
148.001580804985281	3.038383e+02
149.00037623196738	3.038454e+02
150.002041994228136	3.038557e+02
151.000659972712299	3.038697e+02
151.999442445215436	3.038880e+02
153.001677289877819	3.039104e+02
154.00172177073722	3.039370e+02
154.999891828328799	3.039652e+02
155.999586603544287	3.039946e+02
157.001135382558516	3.040228e+02
158.001515024317882	3.040475e+02
159.000452904609233	3.040667e+02
160.000936841011566	3.040797e+02
160.999840760413548	3.040867e+02
162.000128449045548	3.040881e+02
163.001721118222179	3.040848e+02
164.001466615174991	3.040781e+02
164.999469516720637	3.040693e+02
166.001895769050151	3.040596e+02
166.999623230678878	3.040504e+02
168.001980176455106	3.040427e+02
168.999797111832464	3.040368e+02
169.999327931056797	3.040326e+02
171.000741704657912	3.040298e+02
172.000933317836058	3.040276e+02
172.999858258248878	3.040254e+02
174.000459309810481	3.040227e+02
174.999230964081022	3.040189e+02
176.001823974840363	3.040137e+02
177.001677528293413	3.040068e+02
178.001897432278639	3.039988e+02
178.999477284530741	3.039905e+02
180.000876929608779	3.039828e+02
181.000129702013908	3.039767e+02
182.000620718633769	3.039723e+02
182.999341833524653	3.039695e+02
183.999269602900625	3.039677e+02
185.000290159403136	3.039659e+02
185.999138254646653	3.039633e+02
187.00192819901423	3.039592e+02
188.002100753132737	3.039528e+02
188.999401948011354	3.039441e+02
190.000009576696584	3.039331e+02
191.000602512052552	3.039204e+02
192.000903248552049	3.039068e+02
193.000646632122681	3.038925e+02
193.999514181629451	3.038778e+02
195.000731162499932	3.038622e+02
196.001754937982156	3.038455e+02
197.000071045045672	3.038265e+02
198.002007170686312	3.038036e+02
199.000916881997426	3.037748e+02
199.999612353780066	3.037391e+02
201.001058917549273	3.036967e+02
202.002077889812654	3.036479e+02
202.99938204591723	3.035938e+02
204.002095543813795	3.035366e+02
205.000992474260471	3.034802e+02
205.999660504312885	3.034258e+02
207.001238886837569	3.033712e+02
207.999298004801517	3.033136e+02
208.999745348981605	3.032491e+02
210.001458903139991	3.031753e+02
211.000242198910087	3.030953e+02
212.001905389240108	3.030148e+02
213.000223120931452	3.029388e+02
214.001889103766104	3.028756e+02
215.001311938262972	3.028319e+02
216.001580318367957	3.028000e+02
217.001009526045266	3.027755e+02
218.001233887792552	3.027600e+02
219.000201883343749	3.027447e+02
220.000910902737701	3.027217e+02
220.999826318389324	3.026995e+02
221.999484042010948	3.026832e+02
222.999573556478197	3.026594e+02
223.999571260102471	3.026318e+02
224.999167544001807	3.026091e+02
226.001862355567113	3.025752e+02
227.00167849316307	3.025252e+02
228.001230841940497	3.024799e+02
229.000424212989913	3.024371e+02
229.99931272453972	3.023752e+02
231.00035149821332	3.023091e+02
232.000417678477731	3.022585e+02
232.999637483021473	3.022084e+02
234.000027860813049	3.021540e+02
235.001748350051628	3.021132e+02
235.999212579281817	3.020846e+02
237.000768684014673	3.020553e+02
238.000500060854421	3.020367e+02
238.999379413751882	3.020327e+02
240.000061065156473	3.020352e+02
240.999783874352488	3.020446e+02
241.999217412811873	3.020646e+02
243.001333347997786	3.020911e+02
244.000329816981377	3.021194e+02
244.999756118580478	3.021494e+02
245.999764393046519	3.021820e+02
247.000524241728925	3.022154e+02
247.999354188237049	3.022470e+02
248.999494081416515	3.022756e+02
250.001110696175971	3.023013e+02
251.001532993736845	3.023249e+02
252.000921614597075	3.023480e+02
252.999282849031687	3.023699e+02
253.999850497343544	3.023904e+02
255.00004543105274	3.024098e+02
256.000365920649983	3.024260e+02
257.001261638921392	3.024403e+02
257.999548103657958	3.024588e+02
258.99971364117971	3.024884e+02
260.002149025808819	3.025292e+02
261.000921947821837	3.025712e+02
261.99950686948381	3.026048e+02
263.001191272204949	3.026271e+02
263.999778419957408	3.026415e+02
265.00119059435292	3.026505e+02
265.999549940802126	3.026542e+02
267.000749356106553	3.026507e+02
268.000742203287302	3.026355e+02
269.00002621556996	3.026028e+02
270.002192130799926	3.025505e+02
271.001116008764257	3.024842e+02
271.999828284674436	3.024109e+02
273.001202936759398	3.023400e+02
274.001992594249884	3.022771e+02
274.999358152233697	3.022242e+02
276.000078489080693	3.021823e+02
277.001423281625193	3.021576e+02
277.999774269456566	3.021597e+02
279.000338809060509	3.021862e+02
279.999803239072378	3.022080e+02
281.00199923250301	3.021959e+02
282.001237742896592	3.021485e+02
283.000845865006283	3.020797e+02
284.000919283847736	3.020089e+02
285.001505169815289	3.019536e+02
286.001983379887918	3.019175e+02
287.000860649189406	3.018946e+02
287.99976925718363	3.018805e+02
289.001216652992298	3.018748e+02
289.999289276536729	3.018756e+02
291.001202684429529	3.018768e+02
292.001880769330967	3.018723e+02
293.001939873465119	3.018592e+02
294.001406762787269	3.018371e+02
294.999860841462578	3.018109e+02
296.00082332633508	3.017908e+02
296.999440942767023	3.017815e+02
297.999750996092871	3.017806e+02
299.001606963360757	3.017822e+02
300.00096349475109	3.017784e+02
300.999913314513492	3.017603e+02
302.001050523417859	3.017237e+02
303.001211162612037	3.016775e+02
304.000530831946662	3.016362e+02
304.999600659278087	3.016083e+02
306.001009509919697	3.015965e+02
307.001474429075984	3.015939e+02
308.001896955747839	3.015909e+02
309.00215953038952	3.015868e+02
310.002016522719316	3.015856e+02
311.002156067684552	3.015898e+02
312.000057874843549	3.015990e+02
313.001700906769599	3.016063e+02
314.000664442998186	3.016056e+02
314.99977162945703	3.015952e+02
316.001939997220234	3.015770e+02
317.000997667292268	3.015537e+02
317.999963426011846	3.015281e+02
319.001791186184562	3.015030e+02
320.000219021556404	3.014809e+02
321.001332443899855	3.014623e+02
322.002120766446581	3.014463e+02
322.999613956139115	3.014317e+02
324.000053809379779	3.014201e+02
325.000468122121561	3.014138e+02
326.000890696256192	3.014141e+02
327.001340404046516	3.014190e+02
328.00182603880279	3.014246e+02
328.999278542550144	3.014280e+02
329.999826816678308	3.014284e+02
331.000443477589613	3.014272e+02
332.001169817488744	3.014251e+02
333.002032037401875	3.014224e+02
333.999965515217639	3.014190e+02
335.001063632408773	3.014143e+02
335.999158109576854	3.014082e+02
337.000345463513611	3.014018e+02
338.001581848732201	3.013959e+02
338.999866861473265	3.013912e+02
340.001419974520957	3.013880e+02
341.000218753709873	3.013865e+02
341.99940043036537	3.013865e+02
343.002081691835315	3.013882e+02
344.002165716201716	3.013904e+02
344.999681204456522	3.013916e+02
346.000781392031456	3.013915e+02
346.999334514526993	3.013908e+02
348.001509094679818	3.013902e+02
349.001161782293025	3.013900e+02
350.001326394200078	3.013896e+02
351.001923782794222	3.013890e+02
351.999787371269576	3.013873e+02
353.00099769186096	3.013832e+02
353.999316873669443	3.013759e+02
355.00082920103489	3.013659e+02
355.999300697844262	3.013539e+02
357.000823793166319	3.013400e+02
357.999158030478213	3.013244e+02
359.00039992939594	3.013072e+02
360.001480671131844	3.012891e+02
360.9992815597804	3.012705e+02
361.999832472127878	3.012523e+02
362.999959745167416	3.012363e+02
363.999605892666068	3.012230e+02
365.001835951716942	3.012126e+02
366.000550017272076	3.012046e+02
367.0018850279655	3.011978e+02
367.999670433758126	3.011919e+02
369.000128039733795	3.011869e+02
370.000214705158442	3.011825e+02
370.999868519623192	3.011774e+02
371.999156450469172	3.011706e+02
373.001216022510619	3.011627e+02
373.999974084365817	3.011542e+02
375.001560862041572	3.011452e+02
375.999861740929703	3.011366e+02
377.000967028724972	3.011298e+02
378.001810983407267	3.011249e+02
378.999377343020058	3.011202e+02
379.999844133061458	3.011144e+02
381.000195256176255	3.011079e+02
382.000470770755555	3.011015e+02
383.000719578955398	3.010954e+02
384.000990581364249	3.010891e+02
385.001323372423997	3.010828e+02
386.001754888625783	3.010769e+02
386.999259078537648	3.010712e+02
387.999985820435654	3.010654e+02
389.000904470221769	3.010600e+02
390.002048686420665	3.010556e+02
391.000391269022714	3.010523e+02
392.002080357299462	3.010499e+02
393.001021889200786	3.010487e+02
394.000313761127586	3.010493e+02
394.999966805718827	3.010519e+02
396.000000737495156	3.010566e+02
397.000431194506007	3.010626e+02
398.001243466568894	3.010686e+02
398.999326681304808	3.010737e+02
400.000751341692762	3.010774e+02
400.999281060359692	3.010795e+02
402.000994149161556	3.010792e+02
402.999669211328353	3.010755e+02
404.001383904857562	3.010678e+02
404.999927130870162	3.010563e+02
406.001391002587809	3.010425e+02
406.999601684736604	3.010275e+02
408.000681472226745	3.010117e+02
409.001550340285974	3.009960e+02
410.002200812724368	3.009818e+02
410.999564337494576	3.009703e+02
411.999771379263905	3.009616e+02
412.999742635731366	3.009553e+02
413.999472666726717	3.009509e+02
415.002027021528761	3.009476e+02
416.001265735712195	3.009449e+02
417.00027961065382	3.009416e+02
418.002168361128668	3.009364e+02
419.000830570643586	3.009296e+02
419.999348062550951	3.009229e+02
421.000807412155893	3.009159e+02
422.002161809745814	3.009085e+02
423.000363478224813	3.009012e+02
424.001518449690877	3.008948e+02
424.999464893304832	3.008898e+02
426.00030369292142	3.008842e+02
427.00099127452637	3.008765e+02
428.001568160606212	3.008677e+02
429.002064812169294	3.008602e+02
429.99944102865561	3.008550e+02
430.999824061049083	3.008499e+02
432.000154087404724	3.008427e+02
433.000424325204449	3.008321e+02
434.00062092770537	3.008207e+02
435.000747573658373	3.008111e+02
436.00084101232062	3.008029e+02
437.000947099993482	3.007952e+02
438.001104957034727	3.007879e+02
439.001372516108916	3.007815e+02
440.001793093184403	3.007764e+02
440.999341095092859	3.007731e+02
442.000174895068085	3.007717e+02
443.001292886892941	3.007725e+02
443.999676892359332	3.007760e+02
445.001468249921118	3.007824e+02
446.0005412841561	3.007913e+02
446.999933551698859	3.008000e+02
447.99957269268856	3.008054e+02
448.99935313418041	3.008061e+02
449.99913949586778	3.008015e+02
451.001905425055099	3.007923e+02
452.001449724326449	3.007796e+02
453.000827018742655	3.007641e+02
454.000060016313171	3.007462e+02
455.002198157437931	3.007272e+02
456.001073655338701	3.007095e+02
456.999732738333421	3.006931e+02
458.00123783219243	3.006776e+02
458.999413706459279	3.006651e+02
460.000163836696743	3.006566e+02
461.000336822645636	3.006504e+02
462.000008779407551	3.006453e+02
462.999244201045997	3.006406e+02
464.001249828436698	3.006353e+02
465.000203846986892	3.006296e+02
465.999385247298903	3.006267e+02
467.001996124994605	3.006248e+02
468.001911059253757	3.006237e+02
469.002115217306198	3.006234e+02
469.999556206629677	3.006243e+02
471.000370882605068	3.006288e+02
472.001484397526838	3.006375e+02
472.999698394739198	3.006474e+02
474.000987097669451	3.006508e+02
475.002187011345541	3.006418e+02
476.000185397848838	3.006246e+02
477.001116975836737	3.006068e+02
478.001946023577034	3.005918e+02
478.999609814288533	3.005777e+02
480.000200582974514	3.005616e+02
481.000640765223636	3.005419e+02
482.000880314070741	3.005214e+02
483.000829945069484	3.005037e+02
484.000391984001851	3.004894e+02
484.999473983508892	3.004763e+02
486.001053223926704	3.004624e+02
487.002066538891711	3.004479e+02
487.999538386941651	3.004350e+02
488.999719400701622	3.004261e+02
489.999787496733063	3.004236e+02
490.999996222002039	3.004270e+02
492.000537937488446	3.004344e+02
493.001528185545851	3.004472e+02
494.000043348333691	3.004655e+02
494.999208302570253	3.004847e+02
496.002054096217819	3.005019e+02
496.999285033710748	3.005171e+02
497.999897188854902	3.005296e+02
499.000681167292043	3.005333e+02
500.001558474786805	3.005231e+02
500.999446010016641	3.005034e+02
502.000461577364092	3.004815e+02
503.001519412383175	3.004605e+02
503.999515874213841	3.004384e+02
505.000534591473297	3.004129e+02
506.001509888547616	3.003872e+02
507.002099204861224	3.003647e+02
508.001952459607026	3.003464e+02
509.000755663345956	3.003302e+02
510.001486862218997	3.003138e+02
511.001232487120603	3.002975e+02
512.000177563831585	3.002820e+02
513.001789287909901	3.002683e+02
514.00046415512486	3.002599e+02
514.99955479442508	3.002590e+02
515.999219044049141	3.002654e+02
516.999511772298206	3.002793e+02
518.000472374905598	3.002992e+02
519.002131619636771	3.003200e+02
520.001384632439681	3.003392e+02
521.001150454765366	3.003585e+02
522.001295794907037	3.003748e+02
523.001754521802923	3.003806e+02
523.999434406018167	3.003737e+02
525.000470145184181	3.003585e+02
526.001803413179573	3.003415e+02
527.000354396031071	3.003234e+02
527.99915328792224	3.003007e+02
529.001163035952914	3.002751e+02
529.999964345861144	3.002496e+02
531.0012454994461	3.002243e+02
532.001321133686361	3.002003e+02
532.999861796665527	3.001776e+02
534.000023953975301	3.001541e+02
535.001875234300201	3.001283e+02
535.99940115798131	3.001001e+02
536.99917090518386	3.000743e+02
538.001702907333424	3.000566e+02
539.001307213403038	3.000486e+02
540.001295571197147	3.000540e+02
541.001852747266639	3.000721e+02
542.000113862146009	3.000972e+02
542.99925261236649	3.001246e+02
543.999244945956434	3.001532e+02
544.999955860121077	3.001822e+02
546.001297232400361	3.002047e+02
547.000192963765812	3.002173e+02
547.999705276214399	3.002227e+02
548.9999173700038	3.002185e+02
550.000837994252493	3.002076e+02
550.999345650914734	3.001936e+02
552.001515635922487	3.001721e+02
553.001105488295934	3.001445e+02
554.00082469309541	3.001152e+02
555.000167760328509	3.000851e+02
556.001365889407907	3.000546e+02
557.000740602278597	3.000247e+02
558.001320209851997	2.999933e+02
559.000110213892867	2.999579e+02
560.000262559516386	2.999202e+02
560.99926184051003	2.998845e+02
562.0006160463181	2.998561e+02
563.00174009765351	2.998414e+02
564.00014104622926	2.998425e+02
564.999154569082179	2.998602e+02
566.001965079634488	2.998882e+02
566.999655573543009	2.999179e+02
568.001384470371249	2.999502e+02
569.000945280324004	2.999851e+02
570.001321185949223	3.000112e+02
570.999458110319438	3.000257e+02
572.001425298497111	3.000373e+02
573.001173122025079	3.000438e+02
574.001841467247459	3.000396e+02
575.000341047316283	3.000265e+02
575.999699363241348	3.000070e+02
576.999717356763654	2.999847e+02
577.999989358568769	2.999613e+02
578.999885849153543	2.999360e+02
580.001639232646653	2.999080e+02
581.001398899649303	2.998791e+02
582.001953020691985	2.998490e+02
583.000404394710699	2.998163e+02
584.000040789207219	2.997828e+02
585.000977102296929	2.997554e+02
586.000530345756715	2.997381e+02
586.999390607787518	2.997358e+02
588.001144122878259	2.997506e+02
589.000134475393111	2.997799e+02
589.999604690043157	2.998197e+02
590.999772563084207	2.998656e+02
592.000714664528573	2.999151e+02
592.999309139145566	2.999674e+02
594.001520821552276	3.000174e+02
595.001288064761411	3.000585e+02
596.001723137116073	3.000897e+02
596.999821477810087	3.001116e+02
598.00163901190831	3.001286e+02
599.001081933450678	3.001430e+02
600.001234037939525	3.001483e+02
601.001940910154531	3.001405e+02
601.999837888485331	3.001263e+02
603.00074770668266	3.001148e+02
604.001417181059651	3.001066e+02
605.001687215290872	3.000992e+02
606.001423520980666	3.000918e+02
607.000513557763156	3.000874e+02
608.00201169442164	3.000889e+02
609.000056043756331	3.000941e+02
610.001065509754426	3.001014e+02
610.999322067287608	3.001144e+02
612.001290099475682	3.001356e+02
613.00120910368264	3.001635e+02
613.999153626805764	3.001972e+02
615.001215520064648	3.002373e+02
616.001098613251429	3.002815e+02
617.001642391969199	3.003278e+02
617.999697263319149	3.003744e+02
619.001421452946829	3.004162e+02
620.000708426598749	3.004485e+02
621.000582813967867	3.004727e+02
622.001112512948225	3.004894e+02
622.999333074703259	3.004959e+02
624.001526337826249	3.004931e+02
625.001797992750539	3.004845e+02
626.00046178708601	3.004714e+02
627.000823918297669	3.004559e+02
627.99971611159765	3.004439e+02
629.000134610487748	3.004436e+02
630.001969376633838	3.004581e+02
631.002048189577636	3.004828e+02
632.0004285707289	3.005126e+02
633.000140181323104	3.005446e+02
634.000770489483443	3.005753e+02
635.001598749550453	3.006012e+02
636.002066656809347	3.006210e+02
637.001786905906442	3.006343e+02
637.999504703499269	3.006408e+02
639.000633690830796	3.006403e+02
639.99918786834246	3.006319e+02
641.001685653684603	3.006131e+02
641.999542269594372	3.005757e+02
642.999953332245013	3.005159e+02
644.000576416523131	3.004569e+02
645.001570642922729	3.004303e+02
645.999643539166868	3.004465e+02
647.000897338513028	3.004949e+02
647.999393108298932	3.005597e+02
649.001851529181295	3.006273e+02
649.999539178774853	3.006850e+02
651.001794109835942	3.007277e+02
651.999859218567849	3.007561e+02
652.999544433281699	3.007717e+02
653.999801568561224	3.007784e+02
654.999489441358605	3.007792e+02
656.000943333250348	3.007765e+02
657.000535376491371	3.007731e+02
658.000870871285201	3.007714e+02
659.001878863745446	3.007737e+02
660.001233104330709	3.007797e+02
661.000437464629726	3.007832e+02
662.001318534737948	3.007746e+02
662.9991663123335	3.007512e+02
664.000285830275857	3.007238e+02
665.000884472697294	3.007135e+02
666.000710235087126	3.007315e+02
667.000122997112726	3.007704e+02
668.001635112096551	3.008143e+02
669.000913257929483	3.008502e+02
669.999420760518205	3.008739e+02
670.999287944031153	3.008886e+02
672.002072327780297	3.009008e+02
673.000725547593561	3.009165e+02
674.001820541744451	3.009393e+02
675.000683714600314	3.009690e+02
675.999399580010731	3.010019e+02
677.002156536049142	3.010298e+02
678.000592297521962	3.010425e+02
679.002148617484863	3.010381e+02
680.001784788341638	3.010198e+02
680.999746126992932	3.009915e+02
682.001551099061089	3.009597e+02
683.001957194035526	3.009372e+02
683.99943363886166	3.009361e+02
684.999119040938353	3.009601e+02
686.000169280818113	3.010044e+02
687.000927326243527	3.010590e+02
688.001734230271609	3.011147e+02
689.000385540699199	3.011655e+02
690.000102986032516	3.012103e+02
691.000584174011692	3.012503e+02
692.001278119513586	3.012875e+02
692.998810184072113	3.013231e+02
694.000540359068509	3.013576e+02
694.999010773474538	3.013902e+02
695.999565635484373	3.014181e+02
697.001150977339762	3.014365e+02
698.001398222010494	3.014394e+02
698.999725805045159	3.014260e+02
700.001498724736734	3.014029e+02
700.999760782747671	3.013817e+02
702.00030560611242	3.013729e+02
703.001545842853716	3.013844e+02
703.998546867952086	3.014178e+02
705.000921811799685	3.014667e+02
705.99962011738819	3.015197e+02
706.999650543847679	3.015701e+02
708.000666672426519	3.016168e+02
708.999237894717226	3.016621e+02
710.001269207781093	3.017082e+02
711.00068407292008	3.017550e+02
711.999619119693762	3.018009e+02
713.000526590509253	3.018420e+02
713.998803280099537	3.018734e+02
715.000794775426357	3.018906e+02
715.999806607808409	3.018923e+02
717.001147277659015	3.018813e+02
717.999618727621851	3.018637e+02
719.001377582509349	3.018468e+02
719.999845347823111	3.018376e+02
721.000439443962705	3.018409e+02
721.998876129608675	3.018574e+02
722.998944888288406	3.018851e+02
724.00114311208813	3.019215e+02
724.998866032413844	3.019649e+02
726.001106170699586	3.020135e+02
727.001242939658482	3.020650e+02
727.999926591871031	3.021174e+02
728.998559988906209	3.021674e+02
730.001622066776122	3.022106e+02
731.000663074018917	3.022418e+02
731.999073254380278	3.022582e+02
732.999937744622798	3.022597e+02
733.999652488256629	3.022494e+02
735.000101756232084	3.022327e+02
735.999935767415082	3.022171e+02
737.001555677275633	3.022093e+02
737.998609831378303	3.022137e+02
739.000917515005426	3.022308e+02
739.999579389089149	3.022594e+02
741.000865824989205	3.022978e+02
742.001221721286811	3.023437e+02
742.9998251475198	3.023950e+02
743.999381362686222	3.024494e+02
745.000661640020667	3.025027e+02
745.999052092078955	3.025492e+02
746.999024049784566	3.025833e+02
748.001289256029395	3.026013e+02
748.99998594164947	3.026029e+02
750.000493470887022	3.025914e+02
751.00118734312548	3.025718e+02
752.000933119647812	3.025516e+02
752.998936581822591	3.025388e+02
754.001276251013905	3.025403e+02
754.999151737409875	3.025594e+02
755.999553005113967	3.025958e+02
756.999766152413599	3.026462e+02
757.999815231926959	3.027058e+02
758.999249365374908	3.027692e+02
760.00074675962378	3.028313e+02
761.001075912032888	3.028871e+02
762.000603060413027	3.029327e+02
763.000135315137868	3.029649e+02
764.000348738217554	3.029811e+02
765.001515277069643	3.029804e+02
766.000180917357966	3.029654e+02
766.998575464161149	3.029433e+02
767.998928480878021	3.029239e+02
769.0008602609538	3.029150e+02
770.001352425349751	3.029206e+02
771.000882636136907	3.029420e+02
771.999918369505622	3.029790e+02
772.998806968452868	3.030287e+02
774.000941714459373	3.030855e+02
775.000334162326453	3.031424e+02
776.000158078921004	3.031943e+02
777.000362560647091	3.032383e+02
778.000837514654791	3.032735e+02
779.001444253866225	3.033005e+02
779.998932096626277	3.033202e+02
780.999294900777159	3.033343e+02
781.999342827852388	3.033455e+02
782.999108211269913	3.033573e+02
783.998685302788545	3.033727e+02
785.001268894906502	3.033928e+02
786.000626433951197	3.034169e+02
786.999811633585182	3.034435e+02
787.998820800601152	3.034717e+02
789.000829230188174	3.035003e+02
789.999847145920967	3.035284e+02
790.999171168364683	3.035555e+02
791.99902125678841	3.035811e+02
792.999571968755276	3.036053e+02
794.000942685735822	3.036284e+02
795.000039267211605	3.036505e+02
795.999824847008995	3.036719e+02
797.00004227907823	3.036928e+02
798.000352229098212	3.037134e+02
799.000463290113203	3.037340e+02
800.000268040779247	3.037548e+02
800.999871383825734	3.037764e+02
801.999438918668716	3.037988e+02
802.999162635716857	3.038218e+02
803.999150184644463	3.038449e+02
804.999489574434278	3.038678e+02
806.000217659127884	3.038899e+02
807.001365643889585	3.039111e+02
807.99976032352879	3.039311e+02
809.001484647565803	3.039501e+02
810.000193134515371	3.039679e+02
810.998851293064718	3.039849e+02
812.000488119036959	3.040015e+02
812.998858862165093	3.040179e+02
814.000173863743385	3.040345e+02
815.001341913480928	3.040514e+02
815.999389005496141	3.040687e+02
817.000736505305099	3.040863e+02
817.999345361780456	3.041042e+02
819.001619323223736	3.041223e+02
820.001459451422306	3.041407e+02
820.998791650032786	3.041591e+02
821.999835648828935	3.041778e+02
823.001443597258117	3.041968e+02
824.000479166678019	3.042160e+02
825.000061539974695	3.042355e+02
826.000154788647023	3.042552e+02
827.000746153186583	3.042749e+02
827.998702254763771	3.042945e+02
829.000257981022514	3.043139e+02
829.999128928896084	3.043327e+02
831.001489294805879	3.043511e+02
832.000998249167878	3.043687e+02
833.00071269008447	3.043855e+02
834.000566630974504	3.044015e+02
835.000478943295093	3.044167e+02
836.000322319766724	3.044311e+02
836.999960958526117	3.044448e+02
837.999563778135894	3.044576e+02
838.999168539985249	3.044696e+02
839.998830256297879	3.044808e+02
840.998615871871266	3.044911e+02
842.00153524296104	3.045005e+02
843.001203686922736	3.045089e+02
844.000720130980653	3.045163e+02
845.000127664575871	3.045226e+02
845.999454980046153	3.045278e+02
846.998688989041057	3.045317e+02
848.000944380996543	3.045342e+02
848.999961869892672	3.045354e+02
849.998889864095986	3.045349e+02
851.000849864152087	3.045328e+02
851.999601594189471	3.045290e+02
853.001515988440019	3.045235e+02
854.000482909667198	3.045168e+02
854.999656519237647	3.045091e+02
855.99893769661162	3.045007e+02
857.001409319402342	3.044919e+02
858.000850150787869	3.044831e+02
859.00046238222626	3.044745e+02
860.000338609620371	3.044664e+02
861.00055942064489	3.044593e+02
862.00111120017948	3.044529e+02
862.998744885252336	3.044471e+02
863.999562963220342	3.044414e+02
865.000333438597977	3.044352e+02
866.000718484703725	3.044277e+02
867.000381215335096	3.044181e+02
867.999326859724874	3.044059e+02
869.000831713809248	3.043906e+02
869.998731560339024	3.043716e+02
870.99914408124846	3.043480e+02
871.998948856785773	3.043191e+02
873.001251550978509	3.042855e+02
873.999438886644043	3.042501e+02
874.999250714949312	3.042166e+02
876.000331079936132	3.041882e+02
876.999152904660036	3.041662e+02
877.999109606079287	3.041492e+02
879.001226105603337	3.041343e+02
880.000590679232914	3.041186e+02
881.001133877869847	3.040989e+02
882.000326707818431	3.040719e+02
882.998714442753908	3.040330e+02
883.999566477270491	3.039796e+02
884.999493633542215	3.039146e+02
886.001481871908709	3.038452e+02
886.999074026412359	3.037814e+02
888.001361691307693	3.037312e+02
888.998687333536395	3.036993e+02
889.999823340214903	3.036824e+02
891.000206741294278	3.036773e+02
892.001524768773493	3.036833e+02
892.999632733533304	3.036973e+02
893.998726334299249	3.037086e+02
895.001251636017628	3.037072e+02
895.99966766697446	3.036738e+02
897.000914273651915	3.035927e+02
897.99999523874294	3.035054e+02
899.0009590909807	3.034457e+02
900.002533407159831	3.034121e+02
901.001649579413879	3.033920e+02
902.002471845652622	3.033771e+02
903.00037772942153	3.033686e+02
904.002809723267433	3.033739e+02
904.999844958107929	3.033971e+02
905.999949295843749	3.034275e+02
907.000155261807322	3.034455e+02
908.000934451877697	3.034528e+02
909.002379459235726	3.034588e+02
910.001638080394969	3.034605e+02
911.001827591161145	3.034573e+02
912.002161111704822	3.034504e+02
913.000765935814343	3.034357e+02
914.00165379520945	3.034138e+02