# Region type : patch node2U_2_Outlet_0
#   Faces  : 148
#   Area   : 1.734765e-02
#        Time	areaAverage(T)
     0.999427	3.031500e+02
      2.00049	3.031500e+02
      3.00031	3.031500e+02
      3.99973	3.031500e+02
      4.99982	3.031500e+02
      6.00096	3.031500e+02
      7.00036	3.031500e+02
      8.00025	3.031500e+02
      8.99988	3.031500e+02
    10.001085	3.031499e+02
    11.000692	3.031735e+02
    12.001192	3.031970e+02
    12.999654	3.032203e+02
    14.001553	3.032436e+02
  15.00191378	3.032667e+02
  15.99990726	3.032896e+02
  17.00021302	3.033124e+02
  18.00201162	3.033353e+02
    19.001665	3.033580e+02
 20.001063064	3.033807e+02
 21.000223408	3.034033e+02
 22.000868674	3.034259e+02
 22.999568146	3.034483e+02
  24.00203262	3.034707e+02
25.00206209729	3.034930e+02
25.9997240433	3.035151e+02
27.00155800819	3.035371e+02
28.00198841907	3.035591e+02
29.00100132413	3.035809e+02
30.0012255059946	3.036026e+02
31.0020125996283	3.036241e+02
31.9997203434261	3.036455e+02
33.0000159367413	3.036667e+02
33.9999993471484	3.036877e+02
35.0001409482367123	3.037086e+02
36.0010399662744121	3.037294e+02
37.000256075600312	3.037501e+02
38.0011334139074748	3.037707e+02
39.0001093232681626	3.037912e+02
39.9994296677075454	3.038116e+02
41.001577972869228	3.038320e+02
42.000199945820512	3.038522e+02
43.0015357555295594	3.038725e+02
44.0000908474563985	3.038927e+02
44.999720034311153	3.039130e+02
46.0011036185372717	3.039335e+02
47.0017015365830488	3.039541e+02
48.001828578469862	3.039747e+02
49.0009987208578792	3.039952e+02
50.001646775172766	3.040159e+02
51.0004873107095733	3.040364e+02
52.0004965650810149	3.040570e+02
53.0016782245142934	3.040775e+02
54.0010911490910033	3.040978e+02
55.0018322131206503	3.041182e+02
56.0008311045826801	3.041385e+02
57.0009505745707656	3.041587e+02
58.0018173874204663	3.041789e+02
58.9998754286462415	3.041990e+02
60.0007253884735974	3.042191e+02
61.000729949421661	3.042391e+02
61.9994469747591523	3.042591e+02
62.9997307278246481	3.042791e+02
64.0016132336676264	3.042991e+02
65.0021195847200062	3.043191e+02
66.0013755148593475	3.043391e+02
66.9994618408717173	3.043590e+02
67.9995567282688285	3.043790e+02
69.0018710907051513	3.043990e+02
70.0005020403649496	3.044189e+02
71.0017759000867983	3.044389e+02
71.9997917061677697	3.044588e+02
73.0007626398363385	3.044787e+02
74.0017781164737585	3.044987e+02
74.9999419786135348	3.045186e+02
76.0015844890211554	3.045385e+02
77.00072239299773	3.045584e+02
78.0004746440082357	3.045782e+02
79.0007523688503994	3.045980e+02
80.0017080025030367	3.046178e+02
81.0004119802447349	3.046374e+02
81.9999292237897635	3.046571e+02
83.0001885797195058	3.046766e+02
84.0008505180802274	3.046962e+02
85.0015387397775584	3.047157e+02
86.0016440249805925	3.047351e+02
87.0005454702849761	3.047545e+02
88.0008545399135187	3.047739e+02
89.0021930695815655	3.047932e+02
90.0016302263138357	3.048126e+02
91.002174366868033	3.048319e+02
92.0010182300664496	3.048512e+02
93.0013450760332745	3.048704e+02
94.0003161743501465	3.048897e+02
95.0010570184568053	3.049089e+02
96.0007746328522842	3.049281e+02
96.9996630297850828	3.049473e+02
98.0009484938242394	3.049664e+02
99.0017864968606887	3.049856e+02
99.9993158549129504	3.050046e+02
100.999686726631666	3.050237e+02
101.999978489330886	3.050427e+02
103.000261993464633	3.050617e+02
104.000541499501338	3.050807e+02
105.000800443492778	3.050996e+02
106.001026051885219	3.051184e+02
107.001221026466325	3.051372e+02
108.001370521164162	3.051560e+02
109.001483834954172	3.051747e+02
110.001570880767829	3.051933e+02
111.001639397267027	3.052119e+02
112.001691850402395	3.052304e+02
113.001723550038278	3.052488e+02
114.001722531996805	3.052672e+02
115.001688189451627	3.052855e+02
116.001613455088133	3.053038e+02
117.001515885901682	3.053220e+02
118.001399825818325	3.053401e+02
119.00127979677535	3.053581e+02
120.001166177764588	3.053761e+02
121.001081732862403	3.053940e+02
122.001048584949245	3.054118e+02
123.001071870744425	3.054295e+02
124.001154706657402	3.054472e+02
125.001275712311497	3.054647e+02
126.001409099885151	3.054822e+02
127.001505571405914	3.054995e+02
128.001520918692876	3.055168e+02
129.001402911285169	3.055339e+02
130.001116511936488	3.055510e+02
131.000614246332248	3.055679e+02
131.999921018561707	3.055848e+02
133.002057892161417	3.056015e+02
134.001047481116501	3.056182e+02
134.999918542921648	3.056347e+02
136.001802808679997	3.056512e+02
137.000722192789738	3.056675e+02
137.999722857611772	3.056838e+02
139.001822047630924	3.057000e+02
140.001006477596889	3.057161e+02
141.000279937221819	3.057322e+02
141.999610839514531	3.057482e+02
143.002000997207233	3.057641e+02
144.001416430672435	3.057800e+02
145.000845281827281	3.057958e+02
146.000219852035571	3.058115e+02
146.999516132038053	3.058272e+02
148.001580804985281	3.058429e+02
149.00037623196738	3.058585e+02
150.002041994228136	3.058741e+02
151.000659972712299	3.058897e+02
151.999442445215436	3.059052e+02
153.001677289877819	3.059209e+02
154.00172177073722	3.059365e+02
154.999891828328799	3.059522e+02
155.999586603544287	3.059679e+02
157.001135382558516	3.059837e+02
158.001515024317882	3.059995e+02
159.000452904609233	3.060154e+02
160.000936841011566	3.060312e+02
160.999840760413548	3.060471e+02
162.000128449045548	3.060628e+02
163.001721118222179	3.060786e+02
164.001466615174991	3.060942e+02
164.999469516720637	3.061097e+02
166.001895769050151	3.061252e+02
166.999623230678878	3.061405e+02
168.001980176455106	3.061558e+02
168.999797111832464	3.061709e+02
169.999327931056797	3.061860e+02
171.000741704657912	3.062010e+02
172.000933317836058	3.062160e+02
172.999858258248878	3.062308e+02
174.000459309810481	3.062457e+02
174.999230964081022	3.062604e+02
176.001823974840363	3.062751e+02
177.001677528293413	3.062896e+02
178.001897432278639	3.063041e+02
178.999477284530741	3.063185e+02
180.000876929608779	3.063328e+02
181.000129702013908	3.063470e+02
182.000620718633769	3.063612e+02
182.999341833524653	3.063752e+02
183.999269602900625	3.063892e+02
185.000290159403136	3.064032e+02
185.999138254646653	3.064170e+02
187.00192819901423	3.064309e+02
188.002100753132737	3.064446e+02
188.999401948011354	3.064582e+02
190.000009576696584	3.064718e+02
191.000602512052552	3.064853e+02
192.000903248552049	3.064986e+02
193.000646632122681	3.065119e+02
193.999514181629451	3.065250e+02
195.000731162499932	3.065380e+02
196.001754937982156	3.065509e+02
197.000071045045672	3.065637e+02
198.002007170686312	3.065764e+02
199.000916881997426	3.065888e+02
199.999612353780066	3.066011e+02
201.001058917549273	3.066133e+02
202.002077889812654	3.066252e+02
202.99938204591723	3.066368e+02
204.002095543813795	3.066482e+02
205.000992474260471	3.066592e+02
205.999660504312885	3.066701e+02
207.001238886837569	3.066806e+02
207.999298004801517	3.066909e+02
208.999745348981605	3.067009e+02
210.001458903139991	3.067107e+02
211.000242198910087	3.067200e+02
212.001905389240108	3.067290e+02
213.000223120931452	3.067377e+02
214.001889103766104	3.067460e+02
215.001311938262972	3.067541e+02
216.001580318367957	3.067620e+02
217.001009526045266	3.067698e+02
218.001233887792552	3.067774e+02
219.000201883343749	3.067850e+02
220.000910902737701	3.067925e+02
220.999826318389324	3.067998e+02
221.999484042010948	3.068070e+02
222.999573556478197	3.068142e+02
223.999571260102471	3.068211e+02
224.999167544001807	3.068280e+02
226.001862355567113	3.068348e+02
227.00167849316307	3.068413e+02
228.001230841940497	3.068476e+02
229.000424212989913	3.068537e+02
229.99931272453972	3.068596e+02
231.00035149821332	3.068652e+02
232.000417678477731	3.068706e+02
232.999637483021473	3.068757e+02
234.000027860813049	3.068806e+02
235.001748350051628	3.068853e+02
235.999212579281817	3.068898e+02
237.000768684014673	3.068943e+02
238.000500060854421	3.068985e+02
238.999379413751882	3.069028e+02
240.000061065156473	3.069070e+02
240.999783874352488	3.069112e+02
241.999217412811873	3.069154e+02
243.001333347997786	3.069198e+02
244.000329816981377	3.069242e+02
244.999756118580478	3.069287e+02
245.999764393046519	3.069334e+02
247.000524241728925	3.069381e+02
247.999354188237049	3.069429e+02
248.999494081416515	3.069479e+02
250.001110696175971	3.069530e+02
251.001532993736845	3.069581e+02
252.000921614597075	3.069633e+02
252.999282849031687	3.069685e+02
253.999850497343544	3.069739e+02
255.00004543105274	3.069792e+02
256.000365920649983	3.069847e+02
257.001261638921392	3.069902e+02
257.999548103657958	3.069957e+02
258.99971364117971	3.070012e+02
260.002149025808819	3.070070e+02
261.000921947821837	3.070128e+02
261.99950686948381	3.070188e+02
263.001191272204949	3.070249e+02
263.999778419957408	3.070310e+02
265.00119059435292	3.070371e+02
265.999549940802126	3.070432e+02
267.000749356106553	3.070494e+02
268.000742203287302	3.070554e+02
269.00002621556996	3.070613e+02
270.002192130799926	3.070671e+02
271.001116008764257	3.070726e+02
271.999828284674436	3.070778e+02
273.001202936759398	3.070826e+02
274.001992594249884	3.070872e+02
274.999358152233697	3.070915e+02
276.000078489080693	3.070957e+02
277.001423281625193	3.070997e+02
277.999774269456566	3.071036e+02
279.000338809060509	3.071075e+02
279.999803239072378	3.071116e+02
281.00199923250301	3.071157e+02
282.001237742896592	3.071196e+02
283.000845865006283	3.071232e+02
284.000919283847736	3.071266e+02
285.001505169815289	3.071297e+02
286.001983379887918	3.071326e+02
287.000860649189406	3.071354e+02
287.99976925718363	3.071381e+02
289.001216652992298	3.071408e+02
289.999289276536729	3.071434e+02
291.001202684429529	3.071460e+02
292.001880769330967	3.071486e+02
293.001939873465119	3.071512e+02
294.001406762787269	3.071537e+02
294.999860841462578	3.071561e+02
296.00082332633508	3.071583e+02
296.999440942767023	3.071605e+02
297.999750996092871	3.071627e+02
299.001606963360757	3.071649e+02
300.00096349475109	3.071670e+02
300.999913314513492	3.071691e+02
302.001050523417859	3.071711e+02
303.001211162612037	3.071730e+02
304.000530831946662	3.071746e+02
304.999600659278087	3.071761e+02
306.001009509919697	3.071775e+02
307.001474429075984	3.071789e+02
308.001896955747839	3.071802e+02
309.00215953038952	3.071815e+02
310.002016522719316	3.071829e+02
311.002156067684552	3.071842e+02
312.000057874843549	3.071855e+02
313.001700906769599	3.071869e+02
314.000664442998186	3.071883e+02
314.99977162945703	3.071896e+02
316.001939997220234	3.071909e+02
317.000997667292268	3.071921e+02
317.999963426011846	3.071932e+02
319.001791186184562	3.071942e+02
320.000219021556404	3.071951e+02
321.001332443899855	3.071959e+02
322.002120766446581	3.071966e+02
322.999613956139115	3.071973e+02
324.000053809379779	3.071979e+02
325.000468122121561	3.071985e+02
326.000890696256192	3.071991e+02
327.001340404046516	3.071996e+02
328.00182603880279	3.072002e+02
328.999278542550144	3.072009e+02
329.999826816678308	3.072015e+02
331.000443477589613	3.072021e+02
332.001169817488744	3.072027e+02
333.002032037401875	3.072033e+02
333.999965515217639	3.072038e+02
335.001063632408773	3.072044e+02
335.999158109576854	3.072049e+02
337.000345463513611	3.072054e+02
338.001581848732201	3.072059e+02
338.999866861473265	3.072064e+02
340.001419974520957	3.072068e+02
341.000218753709873	3.072072e+02
341.99940043036537	3.072077e+02
343.002081691835315	3.072081e+02
344.002165716201716	3.072085e+02
344.999681204456522	3.072089e+02
346.000781392031456	3.072094e+02
346.999334514526993	3.072098e+02
348.001509094679818	3.072102e+02
349.001161782293025	3.072107e+02
350.001326394200078	3.072111e+02
351.001923782794222	3.072115e+02
351.999787371269576	3.072119e+02
353.00099769186096	3.072123e+02
353.999316873669443	3.072127e+02
355.00082920103489	3.072130e+02
355.999300697844262	3.072133e+02
357.000823793166319	3.072136e+02
357.999158030478213	3.072138e+02
359.00039992939594	3.072139e+02
360.001480671131844	3.072139e+02
360.9992815597804	3.072139e+02
361.999832472127878	3.072138e+02
362.999959745167416	3.072136e+02
363.999605892666068	3.072134e+02
365.001835951716942	3.072131e+02
366.000550017272076	3.072128e+02
367.0018850279655	3.072125e+02
367.999670433758126	3.072121e+02
369.000128039733795	3.072117e+02
370.000214705158442	3.072113e+02
370.999868519623192	3.072109e+02
371.999156450469172	3.072105e+02
373.001216022510619	3.072100e+02
373.999974084365817	3.072095e+02
375.001560862041572	3.072090e+02
375.999861740929703	3.072084e+02
377.000967028724972	3.072078e+02
378.001810983407267	3.072072e+02
378.999377343020058	3.072066e+02
379.999844133061458	3.072060e+02
381.000195256176255	3.072053e+02
382.000470770755555	3.072046e+02
383.000719578955398	3.072039e+02
384.000990581364249	3.072032e+02
385.001323372423997	3.072024e+02
386.001754888625783	3.072016e+02
386.999259078537648	3.072008e+02
387.999985820435654	3.072000e+02
389.000904470221769	3.071992e+02
390.002048686420665	3.071983e+02
391.000391269022714	3.071974e+02
392.002080357299462	3.071966e+02
393.001021889200786	3.071957e+02
394.000313761127586	3.071948e+02
394.999966805718827	3.071940e+02
396.000000737495156	3.071931e+02
397.000431194506007	3.071923e+02
398.001243466568894	3.071915e+02
398.999326681304808	3.071907e+02
400.000751341692762	3.071900e+02
400.999281060359692	3.071892e+02
402.000994149161556	3.071885e+02
402.999669211328353	3.071878e+02
404.001383904857562	3.071870e+02
404.999927130870162	3.071862e+02
406.001391002587809	3.071854e+02
406.999601684736604	3.071845e+02
408.000681472226745	3.071836e+02
409.001550340285974	3.071826e+02
410.002200812724368	3.071815e+02
410.999564337494576	3.071804e+02
411.999771379263905	3.071793e+02
412.999742635731366	3.071781e+02
413.999472666726717	3.071769e+02
415.002027021528761	3.071757e+02
416.001265735712195	3.071745e+02
417.00027961065382	3.071733e+02
418.002168361128668	3.071721e+02
419.000830570643586	3.071708e+02
419.999348062550951	3.071696e+02
421.000807412155893	3.071683e+02
422.002161809745814	3.071670e+02
423.000363478224813	3.071656e+02
424.001518449690877	3.071643e+02
424.999464893304832	3.071629e+02
426.00030369292142	3.071615e+02
427.00099127452637	3.071601e+02
428.001568160606212	3.071587e+02
429.002064812169294	3.071572e+02
429.99944102865561	3.071557e+02
430.999824061049083	3.071542e+02
432.000154087404724	3.071527e+02
433.000424325204449	3.071512e+02
434.00062092770537	3.071496e+02
435.000747573658373	3.071480e+02
436.00084101232062	3.071463e+02
437.000947099993482	3.071446e+02
438.001104957034727	3.071430e+02
439.001372516108916	3.071412e+02
440.001793093184403	3.071395e+02
440.999341095092859	3.071378e+02
442.000174895068085	3.071360e+02
443.001292886892941	3.071343e+02
443.999676892359332	3.071326e+02
445.001468249921118	3.071309e+02
446.0005412841561	3.071292e+02
446.999933551698859	3.071276e+02
447.99957269268856	3.071260e+02
448.99935313418041	3.071244e+02
449.99913949586778	3.071229e+02
451.001905425055099	3.071213e+02
452.001449724326449	3.071197e+02
453.000827018742655	3.071180e+02
454.000060016313171	3.071163e+02
455.002198157437931	3.071144e+02
456.001073655338701	3.071126e+02
456.999732738333421	3.071107e+02
458.00123783219243	3.071087e+02
458.999413706459279	3.071066e+02
460.000163836696743	3.071046e+02
461.000336822645636	3.071025e+02
462.000008779407551	3.071004e+02
462.999244201045997	3.070983e+02
464.001249828436698	3.070962e+02
465.000203846986892	3.070940e+02
465.999385247298903	3.070919e+02
467.001996124994605	3.070897e+02
468.001911059253757	3.070876e+02
469.002115217306198	3.070855e+02
469.999556206629677	3.070833e+02
471.000370882605068	3.070812e+02
472.001484397526838	3.070791e+02
472.999698394739198	3.070771e+02
474.000987097669451	3.070751e+02
475.002187011345541	3.070731e+02
476.000185397848838	3.070711e+02
477.001116975836737	3.070690e+02
478.001946023577034	3.070668e+02
478.999609814288533	3.070646e+02
480.000200582974514	3.070624e+02
481.000640765223636	3.070600e+02
482.000880314070741	3.070576e+02
483.000829945069484	3.070552e+02
484.000391984001851	3.070527e+02
484.999473983508892	3.070501e+02
486.001053223926704	3.070475e+02
487.002066538891711	3.070449e+02
487.999538386941651	3.070422e+02
488.999719400701622	3.070395e+02
489.999787496733063	3.070367e+02
490.999996222002039	3.070340e+02
492.000537937488446	3.070313e+02
493.001528185545851	3.070287e+02
494.000043348333691	3.070261e+02
494.999208302570253	3.070236e+02
496.002054096217819	3.070212e+02
496.999285033710748	3.070189e+02
497.999897188854902	3.070166e+02
499.000681167292043	3.070144e+02
500.001558474786805	3.070122e+02
500.999446010016641	3.070099e+02
502.000461577364092	3.070076e+02
503.001519412383175	3.070051e+02
503.999515874213841	3.070026e+02
505.000534591473297	3.070000e+02
506.001509888547616	3.069974e+02
507.002099204861224	3.069946e+02
508.001952459607026	3.069918e+02
509.000755663345956	3.069889e+02
510.001486862218997	3.069859e+02
511.001232487120603	3.069829e+02
512.000177563831585	3.069799e+02
513.001789287909901	3.069768e+02
514.00046415512486	3.069737e+02
514.99955479442508	3.069705e+02
515.999219044049141	3.069674e+02
516.999511772298206	3.069644e+02
518.000472374905598	3.069614e+02
519.002131619636771	3.069585e+02
520.001384632439681	3.069557e+02
521.001150454765366	3.069530e+02
522.001295794907037	3.069504e+02
523.001754521802923	3.069478e+02
523.999434406018167	3.069453e+02
525.000470145184181	3.069427e+02
526.001803413179573	3.069400e+02
527.000354396031071	3.069373e+02
527.99915328792224	3.069345e+02
529.001163035952914	3.069317e+02
529.999964345861144	3.069287e+02
531.0012454994461	3.069257e+02
532.001321133686361	3.069225e+02
532.999861796665527	3.069193e+02
534.000023953975301	3.069160e+02
535.001875234300201	3.069127e+02
535.99940115798131	3.069092e+02
536.99917090518386	3.069056e+02
538.001702907333424	3.069020e+02
539.001307213403038	3.068983e+02
540.001295571197147	3.068947e+02
541.001852747266639	3.068911e+02
542.000113862146009	3.068876e+02
542.99925261236649	3.068842e+02
543.999244945956434	3.068809e+02
544.999955860121077	3.068778e+02
546.001297232400361	3.068748e+02
547.000192963765812	3.068719e+02
547.999705276214399	3.068690e+02
548.9999173700038	3.068661e+02
550.000837994252493	3.068632e+02
550.999345650914734	3.068603e+02
552.001515635922487	3.068573e+02
553.001105488295934	3.068542e+02
554.00082469309541	3.068511e+02
555.000167760328509	3.068478e+02
556.001365889407907	3.068444e+02
557.000740602278597	3.068409e+02
558.001320209851997	3.068373e+02
559.000110213892867	3.068336e+02
560.000262559516386	3.068298e+02
560.99926184051003	3.068258e+02
562.0006160463181	3.068217e+02
563.00174009765351	3.068175e+02
564.00014104622926	3.068133e+02
564.999154569082179	3.068092e+02
566.001965079634488	3.068052e+02
566.999655573543009	3.068013e+02
568.001384470371249	3.067976e+02
569.000945280324004	3.067940e+02
570.001321185949223	3.067905e+02
570.999458110319438	3.067872e+02
572.001425298497111	3.067839e+02
573.001173122025079	3.067806e+02
574.001841467247459	3.067774e+02
575.000341047316283	3.067741e+02
575.999699363241348	3.067708e+02
576.999717356763654	3.067675e+02
577.999989358568769	3.067640e+02
578.999885849153543	3.067605e+02
580.001639232646653	3.067569e+02
581.001398899649303	3.067531e+02
582.001953020691985	3.067493e+02
583.000404394710699	3.067454e+02
584.000040789207219	3.067413e+02
585.000977102296929	3.067372e+02
586.000530345756715	3.067329e+02
586.999390607787518	3.067287e+02
588.001144122878259	3.067244e+02
589.000134475393111	3.067203e+02
589.999604690043157	3.067164e+02
590.999772563084207	3.067126e+02
592.000714664528573	3.067090e+02
592.999309139145566	3.067057e+02
594.001520821552276	3.067026e+02
595.001288064761411	3.066996e+02
596.001723137116073	3.066969e+02
596.999821477810087	3.066942e+02
598.00163901190831	3.066916e+02
599.001081933450678	3.066891e+02
600.001234037939525	3.066867e+02
601.001940910154531	3.066842e+02
601.999837888485331	3.066818e+02
603.00074770668266	3.066792e+02
604.001417181059651	3.066767e+02
605.001687215290872	3.066741e+02
606.001423520980666	3.066715e+02
607.000513557763156	3.066689e+02
608.00201169442164	3.066663e+02
609.000056043756331	3.066637e+02
610.001065509754426	3.066612e+02
610.999322067287608	3.066587e+02
612.001290099475682	3.066563e+02
613.00120910368264	3.066540e+02
613.999153626805764	3.066518e+02
615.001215520064648	3.066498e+02
616.001098613251429	3.066479e+02
617.001642391969199	3.066463e+02
617.999697263319149	3.066448e+02
619.001421452946829	3.066435e+02
620.000708426598749	3.066424e+02
621.000582813967867	3.066414e+02
622.001112512948225	3.066404e+02
622.999333074703259	3.066396e+02
624.001526337826249	3.066387e+02
625.001797992750539	3.066378e+02
626.00046178708601	3.066369e+02
627.000823918297669	3.066359e+02
627.99971611159765	3.066349e+02
629.000134610487748	3.066338e+02
630.001969376633838	3.066328e+02
631.002048189577636	3.066319e+02
632.0004285707289	3.066310e+02
633.000140181323104	3.066303e+02
634.000770489483443	3.066298e+02
635.001598749550453	3.066293e+02
636.002066656809347	3.066290e+02
637.001786905906442	3.066287e+02
637.999504703499269	3.066284e+02
639.000633690830796	3.066282e+02
639.99918786834246	3.066279e+02
641.001685653684603	3.066276e+02
641.999542269594372	3.066272e+02
642.999953332245013	3.066266e+02
644.000576416523131	3.066257e+02
645.001570642922729	3.066247e+02
645.999643539166868	3.066237e+02
647.000897338513028	3.066227e+02
647.999393108298932	3.066221e+02
649.001851529181295	3.066217e+02
649.999539178774853	3.066215e+02
651.001794109835942	3.066216e+02
651.999859218567849	3.066218e+02
652.999544433281699	3.066220e+02
653.999801568561224	3.066224e+02
654.999489441358605	3.066227e+02
656.000943333250348	3.066230e+02
657.000535376491371	3.066233e+02
658.000870871285201	3.066236e+02
659.001878863745446	3.066239e+02
660.001233104330709	3.066243e+02
661.000437464629726	3.066246e+02
662.001318534737948	3.066249e+02
662.9991663123335	3.066252e+02
664.000285830275857	3.066253e+02
665.000884472697294	3.066254e+02
666.000710235087126	3.066255e+02
667.000122997112726	3.066257e+02
668.001635112096551	3.066261e+02
669.000913257929483	3.066266e+02
669.999420760518205	3.066273e+02
670.999287944031153	3.066280e+02
672.002072327780297	3.066288e+02
673.000725547593561	3.066296e+02
674.001820541744451	3.066305e+02
675.000683714600314	3.066315e+02
675.999399580010731	3.066326e+02
677.002156536049142	3.066338e+02
678.000592297521962	3.066351e+02
679.002148617484863	3.066365e+02
680.001784788341638	3.066377e+02
680.999746126992932	3.066389e+02
682.001551099061089	3.066400e+02
683.001957194035526	3.066409e+02
683.99943363886166	3.066418e+02
684.999119040938353	3.066427e+02
686.000169280818113	3.066437e+02
687.000927326243527	3.066450e+02
688.001734230271609	3.066465e+02
689.000385540699199	3.066481e+02
690.000102986032516	3.066500e+02
691.000584174011692	3.066520e+02
692.001278119513586	3.066542e+02
692.998810184072113	3.066565e+02
694.000540359068509	3.066589e+02
694.999010773474538	3.066615e+02
695.999565635484373	3.066641e+02
697.001150977339762	3.066669e+02
698.001398222010494	3.066697e+02
698.999725805045159	3.066724e+02
700.001498724736734	3.066751e+02
700.999760782747671	3.066776e+02
702.00030560611242	3.066801e+02
703.001545842853716	3.066826e+02
703.998546867952086	3.066852e+02
705.000921811799685	3.066879e+02
705.99962011738819	3.066908e+02
706.999650543847679	3.066939e+02
708.000666672426519	3.066972e+02
708.999237894717226	3.067007e+02
710.001269207781093	3.067043e+02
711.00068407292008	3.067081e+02
711.999619119693762	3.067120e+02
713.000526590509253	3.067162e+02
713.998803280099537	3.067204e+02
715.000794775426357	3.067248e+02
715.999806607808409	3.067291e+02
717.001147277659015	3.067334e+02
717.999618727621851	3.067377e+02
719.001377582509349	3.067418e+02
719.999845347823111	3.067459e+02
721.000439443962705	3.067500e+02
721.998876129608675	3.067541e+02
722.998944888288406	3.067582e+02
724.00114311208813	3.067625e+02
724.998866032413844	3.067669e+02
726.001106170699586	3.067715e+02
727.001242939658482	3.067762e+02
727.999926591871031	3.067811e+02
728.998559988906209	3.067863e+02
730.001622066776122	3.067916e+02
731.000663074018917	3.067970e+02
731.999073254380278	3.068025e+02
732.999937744622798	3.068080e+02
733.999652488256629	3.068135e+02
735.000101756232084	3.068188e+02
735.999935767415082	3.068242e+02
737.001555677275633	3.068294e+02
737.998609831378303	3.068346e+02
739.000917515005426	3.068398e+02
739.999579389089149	3.068451e+02
741.000865824989205	3.068505e+02
742.001221721286811	3.068561e+02
742.9998251475198	3.068618e+02
743.999381362686222	3.068677e+02
745.000661640020667	3.068738e+02
745.999052092078955	3.068801e+02
746.999024049784566	3.068865e+02
748.001289256029395	3.068931e+02
748.99998594164947	3.068996e+02
750.000493470887022	3.069060e+02
751.00118734312548	3.069124e+02
752.000933119647812	3.069187e+02
752.998936581822591	3.069248e+02
754.001276251013905	3.069310e+02
754.999151737409875	3.069371e+02
755.999553005113967	3.069434e+02
756.999766152413599	3.069497e+02
757.999815231926959	3.069563e+02
758.999249365374908	3.069631e+02
760.00074675962378	3.069701e+02
761.001075912032888	3.069774e+02
762.000603060413027	3.069848e+02
763.000135315137868	3.069923e+02
764.000348738217554	3.069999e+02
765.001515277069643	3.070075e+02
766.000180917357966	3.070150e+02
766.998575464161149	3.070224e+02
767.998928480878021	3.070297e+02
769.0008602609538	3.070370e+02
770.001352425349751	3.070442e+02
771.000882636136907	3.070514e+02
771.999918369505622	3.070587e+02
772.998806968452868	3.070661e+02
774.000941714459373	3.070738e+02
775.000334162326453	3.070816e+02
776.000158078921004	3.070896e+02
777.000362560647091	3.070978e+02
778.000837514654791	3.071061e+02
779.001444253866225	3.071145e+02
779.998932096626277	3.071229e+02
780.999294900777159	3.071314e+02
781.999342827852388	3.071399e+02
782.999108211269913	3.071484e+02
783.998685302788545	3.071569e+02
785.001268894906502	3.071655e+02
786.000626433951197	3.071741e+02
786.999811633585182	3.071828e+02
787.998820800601152	3.071915e+02
789.000829230188174	3.072004e+02
789.999847145920967	3.072093e+02
790.999171168364683	3.072183e+02
791.99902125678841	3.072273e+02
792.999571968755276	3.072365e+02
794.000942685735822	3.072457e+02
795.000039267211605	3.072549e+02
795.999824847008995	3.072642e+02
797.00004227907823	3.072735e+02
798.000352229098212	3.072829e+02
799.000463290113203	3.072923e+02
800.000268040779247	3.073018e+02
800.999871383825734	3.073113e+02
801.999438918668716	3.073208e+02
802.999162635716857	3.073304e+02
803.999150184644463	3.073401e+02
804.999489574434278	3.073498e+02
806.000217659127884	3.073596e+02
807.001365643889585	3.073694e+02
807.99976032352879	3.073793e+02
809.001484647565803	3.073892e+02
810.000193134515371	3.073991e+02
810.998851293064718	3.074091e+02
812.000488119036959	3.074191e+02
812.998858862165093	3.074291e+02
814.000173863743385	3.074391e+02
815.001341913480928	3.074492e+02
815.999389005496141	3.074593e+02
817.000736505305099	3.074694e+02
817.999345361780456	3.074796e+02
819.001619323223736	3.074898e+02
820.001459451422306	3.075000e+02
820.998791650032786	3.075102e+02
821.999835648828935	3.075205e+02
823.001443597258117	3.075309e+02
824.000479166678019	3.075412e+02
825.000061539974695	3.075516e+02
826.000154788647023	3.075624e+02
827.000746153186583	3.075729e+02
827.998702254763771	3.075834e+02
829.000257981022514	3.075939e+02
829.999128928896084	3.076045e+02
831.001489294805879	3.076151e+02
832.000998249167878	3.076257e+02
833.00071269008447	3.076364e+02
834.000566630974504	3.076471e+02
835.000478943295093	3.076578e+02
836.000322319766724	3.076685e+02
836.999960958526117	3.076792e+02
837.999563778135894	3.076899e+02
838.999168539985249	3.077007e+02
839.998830256297879	3.077114e+02
840.998615871871266	3.077222e+02
842.00153524296104	3.077329e+02
843.001203686922736	3.077437e+02
844.000720130980653	3.077544e+02
845.000127664575871	3.077651e+02
845.999454980046153	3.077758e+02
846.998688989041057	3.077865e+02
848.000944380996543	3.077971e+02
848.999961869892672	3.078077e+02
849.998889864095986	3.078183e+02
851.000849864152087	3.078288e+02
851.999601594189471	3.078392e+02
853.001515988440019	3.078497e+02
854.000482909667198	3.078600e+02
854.999656519237647	3.078702e+02
855.99893769661162	3.078804e+02
857.001409319402342	3.078906e+02
858.000850150787869	3.079006e+02
859.00046238222626	3.079106e+02
860.000338609620371	3.079205e+02
861.00055942064489	3.079303e+02
862.00111120017948	3.079401e+02
862.998744885252336	3.079497e+02
863.999562963220342	3.079594e+02
865.000333438597977	3.079689e+02
866.000718484703725	3.079785e+02
867.000381215335096	3.079879e+02
867.999326859724874	3.079972e+02
869.000831713809248	3.080065e+02
869.998731560339024	3.080157e+02
870.99914408124846	3.080247e+02
871.998948856785773	3.080336e+02
873.001251550978509	3.080424e+02
873.999438886644043	3.080509e+02
874.999250714949312	3.080593e+02
876.000331079936132	3.080675e+02
876.999152904660036	3.080756e+02
877.999109606079287	3.080836e+02
879.001226105603337	3.080915e+02
880.000590679232914	3.080993e+02
881.001133877869847	3.081070e+02
882.000326707818431	3.081146e+02
882.998714442753908	3.081220e+02
883.999566477270491	3.081293e+02
884.999493633542215	3.081362e+02
886.001481871908709	3.081429e+02
886.999074026412359	3.081492e+02
888.001361691307693	3.081553e+02
888.998687333536395	3.081612e+02
889.999823340214903	3.081670e+02
891.000206741294278	3.081727e+02
892.001524768773493	3.081784e+02
892.999632733533304	3.081842e+02
893.998726334299249	3.081899e+02
895.001251636017628	3.081957e+02
895.99966766697446	3.082013e+02
897.000914273651915	3.082068e+02
897.99999523874294	3.082118e+02
899.0009590909807	3.082169e+02
900.002533407159831	3.082214e+02
901.001649579413879	3.082258e+02
902.002471845652622	3.082301e+02
903.00037772942153	3.082344e+02
904.002809723267433	3.082386e+02
904.999844958107929	3.082428e+02
905.999949295843749	3.082472e+02
907.000155261807322	3.082517e+02
908.000934451877697	3.082561e+02
909.002379459235726	3.082606e+02
910.001638080394969	3.082651e+02
911.001827591161145	3.082696e+02
912.002161111704822	3.082740e+02
913.000765935814343	3.082784e+02
914.00165379520945	3.082826e+02