# Region type : patch node4U_0_Inlet_0
#   Faces  : 252
#   Area   : 3.465319e-02
#        Time	areaAverage(T)
     0.999427	3.001500e+02
      2.00049	3.001500e+02
      3.00031	3.001500e+02
      3.99974	3.001500e+02
     4.999837	3.001500e+02
      6.00101	3.001500e+02
     7.000448	3.001500e+02
     8.000372	3.001500e+02
     9.000012	3.001500e+02
   10.0011397	3.001500e+02
   11.0005124	3.001499e+02
   12.0006243	3.001496e+02
    13.001107	3.001465e+02
   13.9997402	3.001345e+02
  14.99964955	3.001167e+02
  15.99955708	3.001051e+02
  17.00134405	3.001042e+02
  18.00000337	3.001163e+02
  19.00006167	3.001309e+02
 20.001505108	3.001399e+02
 20.999254464	3.001443e+02
  22.00150266	3.001467e+02
 23.001714829	3.001480e+02
 23.999634984	3.001478e+02
25.00095516804	3.001456e+02
25.9996836352	3.001421e+02
26.99932842931	3.001384e+02
28.00029166142	3.001353e+02
28.99937441246	3.001321e+02
30.002134441893	3.001276e+02
31.002014765417	3.001211e+02
32.001552166551	3.001128e+02
33.000560257147	3.001046e+02
33.999249928093	3.000982e+02
35.00108530523362	3.000941e+02
36.00057592118466	3.000914e+02
37.00120630448001	3.000893e+02
38.00022932106895	3.000880e+02
39.00052258115672	3.000897e+02
40.0012943804983152	3.000974e+02
41.0019879837090926	3.001144e+02
41.9992708912271695	3.001419e+02
43.0021545135227328	3.001792e+02
44.0019391598090266	3.002224e+02
44.9992995861729526	3.002668e+02
46.0009844670853099	3.003085e+02
47.0014489491798813	3.003452e+02
48.0008801364990703	3.003764e+02
48.9995304912996801	3.004022e+02
50.0001794237682375	3.004229e+02
50.9993551299025256	3.004391e+02
51.9998205148969248	3.004518e+02
53.0015311001695864	3.004625e+02
54.0013696283965601	3.004731e+02
54.9993238877661597	3.004848e+02
56.0015339065886479	3.004983e+02
57.0018205760141825	3.005135e+02
58.000096433294182	3.005301e+02
58.9991359299691496	3.005476e+02
60.0016627635771727	3.005660e+02
61.0010778941215932	3.005851e+02
62.0000130700834902	3.006051e+02
63.0010986270090001	3.006260e+02
64.0009690790207202	3.006478e+02
64.9994918949116851	3.006703e+02
65.9998560646141783	3.006933e+02
66.9992477683962306	3.007161e+02
68.0009249354785794	3.007385e+02
69.0019475640447695	3.007601e+02
69.9993513960609874	3.007810e+02
70.9993591323269015	3.008012e+02
72.0020465187059102	3.008209e+02
73.0013581031466714	3.008398e+02
74.000423255190384	3.008579e+02
74.9993458644687365	3.008750e+02
76.0013508435945511	3.008913e+02
77.0005510755528491	3.009066e+02
78.0000113736252843	3.009211e+02
78.9992549610128236	3.009348e+02
80.0009720943383229	3.009480e+02
81.0020589541296232	3.009609e+02
81.9992454193614009	3.009738e+02
83.0014611672898184	3.009868e+02
83.9993628440124525	3.009999e+02
85.0020431376517678	3.010132e+02
86.000333987758637	3.010267e+02
87.0003695380874404	3.010405e+02
88.0020658759812022	3.010547e+02
88.9993795452335519	3.010693e+02
90.0015696379174557	3.010840e+02
90.9997903684166971	3.010986e+02
92.0003898830139377	3.011130e+02
93.0006194266289867	3.011271e+02
94.0007057145538596	3.011408e+02
95.0007997335581251	3.011539e+02
96.0009686444809773	3.011662e+02
97.0012373806239623	3.011775e+02
98.0016053172324462	3.011878e+02
99.0020344570527584	3.011971e+02
99.9994552294174497	3.012057e+02
100.999851234731452	3.012138e+02
102.000136850138333	3.012215e+02
103.000241500016131	3.012290e+02
104.000073061910427	3.012363e+02
104.999552930719901	3.012435e+02
106.001633206025147	3.012507e+02
107.000192996165325	3.012581e+02
108.001260471577879	3.012654e+02
109.001819915586253	3.012726e+02
110.001932009313407	3.012800e+02
111.001635624775176	3.012875e+02
112.000980310532839	3.012951e+02
113.000018915714335	3.013023e+02
114.001807672044521	3.013087e+02
115.000361508444968	3.013142e+02
116.001781982353393	3.013188e+02
117.000048097326257	3.013225e+02
118.00122264940498	3.013253e+02
118.999382617868164	3.013272e+02
120.000616562993542	3.013279e+02
121.002007225989203	3.013269e+02
122.000661640430124	3.013243e+02
122.999734831133267	3.013209e+02
123.99952262735836	3.013179e+02
125.000333848736219	3.013163e+02
125.999642959708595	3.013168e+02
127.000956414914896	3.013197e+02
128.001293686371213	3.013252e+02
129.000700621259568	3.013333e+02
130.002135701572797	3.013450e+02
130.999533849213833	3.013606e+02
131.999244240588723	3.013795e+02
133.001101245812436	3.014001e+02
134.0020971077968	3.014207e+02
135.002075643628388	3.014399e+02
136.000848975566782	3.014570e+02
137.001309026256649	3.014717e+02
138.000254544982795	3.014843e+02
139.000649575250975	3.014954e+02
139.999224934568531	3.015059e+02
141.002036637829093	3.015167e+02
141.999654446908238	3.015278e+02
143.001271960468813	3.015393e+02
144.000548532269903	3.015506e+02
145.00044839448563	3.015614e+02
146.000849050599697	3.015717e+02
147.001677167223932	3.015812e+02
147.99975047252525	3.015899e+02
149.001369451029944	3.015976e+02
150.000282434108982	3.016044e+02
150.999551328031998	3.016106e+02
151.999184896249147	3.016164e+02
152.999208185270845	3.016215e+02
153.999585696359787	3.016261e+02
155.00029833082661	3.016300e+02
156.001343237128225	3.016334e+02
156.999457705577299	3.016362e+02
158.000686168546764	3.016385e+02
159.001776087131674	3.016403e+02
159.999561059721657	3.016418e+02
161.000550527382018	3.016433e+02
162.001972559951867	3.016455e+02
163.000888609676053	3.016491e+02
164.000316687785954	3.016544e+02
165.000096140130211	3.016607e+02
166.000088612179667	3.016668e+02
167.000061340522421	3.016714e+02
167.999782828424799	3.016737e+02
168.999172341489157	3.016734e+02
170.001230534148533	3.016708e+02
170.999544804163264	3.016666e+02
172.00045496321485	3.016614e+02
173.000757901779707	3.016562e+02
174.000444045117518	3.016513e+02
174.999760596408947	3.016467e+02
176.002157779350711	3.016425e+02
177.001661582702695	3.016384e+02
178.001628294344187	3.016345e+02
178.999162606507298	3.016302e+02
180.000503473761029	3.016248e+02
180.999207866690625	3.016176e+02
182.001208593017452	3.016074e+02
183.000047488950003	3.015933e+02
184.001808139786192	3.015747e+02
184.999937399233318	3.015523e+02
186.000595667805044	3.015274e+02
187.000530755139152	3.015017e+02
187.999425330199387	3.014762e+02
189.000062339945401	3.014511e+02
189.999357851741564	3.014255e+02
191.001057008974414	3.013972e+02
191.999795576908383	3.013592e+02
193.002046035564831	3.013021e+02
194.001168212745995	3.012273e+02
195.000232847940111	3.011485e+02
195.99953641592225	3.010835e+02
196.999439237675062	3.010443e+02
197.999269378639354	3.010252e+02
199.000650340503455	3.010133e+02
200.000842022656059	3.009950e+02
201.00119110761409	3.009643e+02
202.001134602567248	3.009273e+02
202.999417775043128	3.008945e+02
204.000827370954454	3.008707e+02
205.000559713225243	3.008602e+02
206.000502514791634	3.008618e+02
207.00011763453864	3.008698e+02
207.999195525308778	3.008771e+02
209.000671541921633	3.008768e+02
210.001817201873507	3.008638e+02
211.0002458890323	3.008331e+02
211.999364130299796	3.007848e+02
213.001839980993253	3.007307e+02
214.000870215088923	3.006819e+02
215.002023773923156	3.006398e+02
216.001504856122665	3.006055e+02
217.002189670235424	3.005790e+02
218.001143521538211	3.005568e+02
219.001212277794565	3.005352e+02
219.999323567592427	3.005139e+02
221.002031393932299	3.004932e+02
222.000217558785977	3.004741e+02
222.99997324448853	3.004593e+02
224.001867206834618	3.004509e+02
225.000375206176443	3.004485e+02
226.00200082573221	3.004509e+02
227.000972114187221	3.004556e+02
228.000539892764351	3.004609e+02
229.000893584517286	3.004677e+02
229.999159920018428	3.004766e+02
231.001639840260879	3.004867e+02
231.999283063040082	3.004982e+02
233.00130211069677	3.005121e+02
234.001698960598503	3.005289e+02
235.000597990278322	3.005481e+02
236.001193587127887	3.005688e+02
237.000556169397072	3.005901e+02
238.001863471893813	3.006121e+02
239.002111919382003	3.006352e+02
240.001418570662111	3.006610e+02
240.999928434963607	3.006874e+02
242.000753346005581	3.007134e+02
243.000790839895984	3.007385e+02
244.000120610590187	3.007626e+02
245.0016559814066	3.007860e+02
246.000482859716641	3.008082e+02
246.99990715638009	3.008286e+02
247.999403010268622	3.008460e+02
249.001563930534189	3.008597e+02
249.99991638000995	3.008688e+02
251.00124377511591	3.008737e+02
252.000612908785769	3.008755e+02
253.001586776589619	3.008747e+02
254.001036030762123	3.008714e+02
254.999975551401036	3.008655e+02
256.000901604547437	3.008564e+02
257.000429744924418	3.008437e+02
258.001671223638084	3.008274e+02
259.001589548794925	3.008081e+02
260.000266655218695	3.007859e+02
261.000969535167712	3.007600e+02
262.000494430921947	3.007287e+02
263.002051357954429	3.006934e+02
263.999663054152222	3.006575e+02
264.999816340629877	3.006236e+02
265.999646482167861	3.005929e+02
266.999122460407477	3.005667e+02
268.001488989346399	3.005471e+02
269.000493605175279	3.005352e+02
270.001990224823089	3.005339e+02
270.999337872084311	3.005431e+02
272.001339823267472	3.005588e+02
273.001474013986467	3.005764e+02
273.999720630411105	3.005932e+02
274.999301622459257	3.006069e+02
276.00038858779908	3.006165e+02
277.000037429810845	3.006211e+02
277.99913815271151	3.006195e+02
279.001896234752223	3.006141e+02
279.999861762659407	3.006101e+02
280.999488359605721	3.006092e+02
282.000390167863145	3.006092e+02
283.001987050804189	3.006048e+02
284.000403045574728	3.005882e+02
285.001459538132849	3.005586e+02
286.001911629869539	3.005222e+02
287.001710184502201	3.004837e+02
288.000877315806576	3.004466e+02
288.999535921458005	3.004164e+02
290.000849147452925	3.003963e+02
291.001784583192489	3.003875e+02
291.999470265078116	3.003884e+02
293.000350726228248	3.003956e+02
294.001453998386921	3.004078e+02
294.99966250983897	3.004255e+02
296.001136649546311	3.004473e+02
296.999687551871489	3.004661e+02
298.001247068601629	3.004796e+02
298.999548585051969	3.004880e+02
300.000750059626967	3.004896e+02
301.001680673730334	3.004850e+02
301.999163971664927	3.004786e+02
302.999367282612582	3.004716e+02
303.999165754537898	3.004629e+02
305.001521887055901	3.004542e+02
306.000375119051853	3.004485e+02
307.001951876416115	3.004470e+02
308.000142042528466	3.004495e+02
309.001212895246681	3.004559e+02
309.999178614301854	3.004660e+02
311.000144539620237	3.004794e+02
312.001033491892031	3.004958e+02
313.001930242594824	3.005135e+02
313.999795573081769	3.005301e+02
315.000737111554429	3.005448e+02
316.001795102997278	3.005581e+02
317.00001860641413	3.005697e+02
318.001569055336915	3.005792e+02
319.000370431756608	3.005868e+02
319.999538897728996	3.005926e+02
321.002128177021007	3.005968e+02
322.001976849831294	3.005995e+02
323.002194787671499	3.006011e+02
323.999791101614449	3.006017e+02
325.000926405668565	3.006021e+02
325.999464392117318	3.006029e+02
327.001583740419449	3.006043e+02
328.001120124628414	3.006058e+02
329.001056924662748	3.006072e+02
330.001316807607054	3.006087e+02
331.001922953082271	3.006103e+02
331.999820607277798	3.006118e+02
333.001108668105701	3.006133e+02
333.999592450065279	3.006156e+02
335.001430012474145	3.006186e+02
336.000445902539866	3.006217e+02
336.999658818477883	3.006248e+02
338.002156064041969	3.006284e+02
339.001851563835544	3.006331e+02
340.001899743984723	3.006388e+02
340.999156465230499	3.006458e+02
341.999853923984119	3.006549e+02
343.000704997008711	3.006655e+02
344.001376858938784	3.006756e+02
345.00203887706607	3.006851e+02
345.999955215504826	3.006948e+02
347.000522663162087	3.007033e+02
348.000200029152836	3.007087e+02
349.000522755694988	3.007120e+02
350.001253613143035	3.007143e+02
351.000624273237918	3.007145e+02
351.999435802063715	3.007116e+02
353.002196744729815	3.007079e+02
354.001070048515999	3.007039e+02
355.001641036799754	3.006985e+02
355.999599629701663	3.006945e+02
357.000540487227624	3.006939e+02
358.000075444862205	3.006945e+02
358.999302800154226	3.006963e+02
360.001709987803054	3.007007e+02
361.000074298292702	3.007061e+02
362.000859290272558	3.007119e+02
363.001622746756937	3.007189e+02
364.001832563596452	3.007262e+02
365.001535463384243	3.007328e+02
366.00131467837474	3.007379e+02
367.00110538924082	3.007412e+02
368.000736030787152	3.007422e+02
369.000275218586978	3.007411e+02
369.999824276884169	3.007386e+02
370.999426774194205	3.007343e+02
372.002080612393968	3.007277e+02
373.001588932385062	3.007204e+02
374.001081446833666	3.007137e+02
375.000626116571937	3.007079e+02
376.000218547876443	3.007030e+02
376.999910591726973	3.007004e+02
377.999797780145002	3.007002e+02
378.999906813743962	3.007024e+02
380.000244808336674	3.007072e+02
381.000865619572778	3.007144e+02
382.001806304484546	3.007224e+02
382.999946272056377	3.007304e+02
384.001355606036498	3.007380e+02
384.99985631053687	3.007445e+02
386.0015402976166	3.007484e+02
387.000162701931743	3.007495e+02
388.001801501548812	3.007479e+02
389.000300444038373	3.007437e+02
390.001742707954349	3.007383e+02
390.99990443699852	3.007332e+02
392.000936197689441	3.007294e+02
393.00177492471073	3.007270e+02
393.999328852185783	3.007265e+02
394.999780108992752	3.007286e+02
396.000134804692266	3.007336e+02
397.00042004616688	3.007409e+02
398.000667031307955	3.007497e+02
399.000931769728538	3.007594e+02
400.001227470614424	3.007694e+02
401.001544797640236	3.007789e+02
402.001902596511854	3.007877e+02
402.999246021227464	3.007955e+02
403.999704245461601	3.008022e+02
405.000213976000339	3.008081e+02
406.000785726507388	3.008131e+02
407.001408508531085	3.008174e+02
408.002071314539194	3.008209e+02
408.999708595374841	3.008238e+02
410.000459919667492	3.008263e+02
411.001252828558734	3.008283e+02
412.002098628850092	3.008300e+02
412.999937502784405	3.008315e+02
414.000908309496879	3.008327e+02
415.001942485681127	3.008336e+02
415.999966713914432	3.008341e+02
417.001110452812043	3.008343e+02
417.999223947442431	3.008341e+02
419.000449839982025	3.008338e+02
420.001714127287812	3.008337e+02
420.999943618431587	3.008340e+02
422.001290078822194	3.008348e+02
422.999615985253001	3.008363e+02
424.001060314288623	3.008385e+02
424.999478222599919	3.008416e+02
426.001017745420938	3.008455e+02
426.999530720086625	3.008500e+02
428.001152874177365	3.008551e+02
428.999734515582077	3.008604e+02
430.001408625449528	3.008658e+02
431.000010340225799	3.008709e+02
432.001667839199797	3.008754e+02
433.000221815074497	3.008789e+02
434.001804251808949	3.008813e+02
435.000261415516377	3.008825e+02
436.001731095603191	3.008827e+02
437.000062707295285	3.008823e+02
438.001391866866186	3.008813e+02
438.999570770102707	3.008800e+02
440.000737846380048	3.008786e+02
441.00182111589163	3.008774e+02
441.999771361342766	3.008769e+02
443.000763413799177	3.008773e+02
444.001696459830953	3.008789e+02
444.999500435886944	3.008816e+02
446.00032752414711	3.008852e+02
447.001117645498596	3.008897e+02
448.001883226712721	3.008947e+02
448.999571098762033	3.008999e+02
450.00033578121878	3.009051e+02
451.00111711588346	3.009100e+02
452.001919501336943	3.009142e+02
452.999672442533097	3.009177e+02
454.000509144188925	3.009201e+02
455.001349657630726	3.009214e+02
456.002184940512961	3.009219e+02
456.999938224470498	3.009215e+02
458.000744652436538	3.009205e+02
459.001531729330225	3.009189e+02
459.999229727689283	3.009171e+02
460.999980922561065	3.009152e+02
462.000721221335311	3.009132e+02
463.001457879234579	3.009115e+02
464.002198438059679	3.009104e+02
464.999883907378376	3.009101e+02
466.000675712563577	3.009106e+02
467.001515884230287	3.009119e+02
467.999330505639648	3.009138e+02
469.000266807748972	3.009163e+02
470.001261089356149	3.009193e+02
470.999245163364833	3.009227e+02
472.000360361590424	3.009264e+02
473.001534471459308	3.009302e+02
473.99969086704948	3.009341e+02
475.000964073942441	3.009379e+02
475.999201404603866	3.009415e+02
477.000533716233122	3.009449e+02
478.001873839315238	3.009478e+02
479.000134933457161	3.009502e+02
480.001446950719014	3.009520e+02
480.999654544415421	3.009533e+02
482.00089220139256	3.009542e+02
483.002083364948987	3.009548e+02
484.000154946090731	3.009550e+02
485.001249816296991	3.009550e+02
485.999230737996697	3.009550e+02
487.00024615858581	3.009553e+02
488.001234027089424	3.009558e+02
488.999135972829379	3.009568e+02
490.000107037485407	3.009582e+02
491.001090819159572	3.009602e+02
492.002101665974578	3.009628e+02
493.00008301340813	3.009659e+02
494.001188349803726	3.009695e+02
494.999284798957547	3.009734e+02
496.000521798226259	3.009776e+02
497.001832923759764	3.009819e+02
498.000146640750472	3.009861e+02
499.001605196865512	3.009901e+02
500.000061963698101	3.009938e+02
501.001655800322453	3.009970e+02
502.000234992100616	3.009998e+02
503.001937609868378	3.010020e+02
504.000610741995047	3.010037e+02
504.999319615887543	3.010049e+02
506.001131858100678	3.010057e+02
506.999897443339478	3.010060e+02
508.001760645684897	3.010062e+02
509.00057494393468	3.010062e+02
509.999413898640967	3.010062e+02
511.001351703648083	3.010064e+02
512.000243591651156	3.010069e+02
512.999166595937822	3.010078e+02
514.001198888276008	3.010093e+02
515.000197471901288	3.010113e+02
515.999240191230342	3.010138e+02
517.001404900109492	3.010167e+02
518.000546014341694	3.010199e+02
518.9997392945819	3.010233e+02
520.002060063838258	3.010268e+02
521.001358525883006	3.010303e+02
522.000709177407316	3.010338e+02
523.000105090532884	3.010370e+02
523.999529934207544	3.010400e+02
525.002084781041731	3.010426e+02
526.001622665853461	3.010448e+02
527.001171985616338	3.010468e+02
528.000721685101212	3.010484e+02
529.000262130536157	3.010499e+02
529.999796097172407	3.010511e+02
530.999318975361916	3.010523e+02
532.001899480313568	3.010532e+02
533.001399512774583	3.010541e+02
534.000900020699419	3.010551e+02
535.000404316961408	3.010562e+02
535.999921060856764	3.010575e+02
536.999458418444192	3.010589e+02
538.002103412542056	3.010604e+02
539.001714787084325	3.010621e+02
540.001366371732502	3.010639e+02
541.001061457090373	3.010658e+02
542.000809750296298	3.010679e+02
543.000609536481306	3.010701e+02
544.000457062784562	3.010724e+02
545.000356160035494	3.010747e+02
546.000305324828219	3.010771e+02
547.000296519477502	3.010794e+02
548.00032856348605	3.010816e+02
549.00039992437064	3.010837e+02
550.00050195823269	3.010857e+02
551.000628867013802	3.010874e+02
552.000778619984771	3.010889e+02
553.000945071355659	3.010901e+02
554.001124319738892	3.010912e+02
555.001316586008329	3.010922e+02
556.001519320644888	3.010930e+02
557.001731672484084	3.010938e+02
558.001954675918114	3.010946e+02
559.002190567552361	3.010954e+02
559.999362884992479	3.010964e+02
560.999630826612474	3.010975e+02
561.999920830554856	3.010988e+02
563.000235633839111	3.011003e+02
564.000576550278424	3.011020e+02
565.000944078801922	3.011038e+02
566.001337432372793	3.011057e+02
567.001755222184784	3.011077e+02
568.002196495543558	3.011098e+02
568.999580920182666	3.011119e+02
570.000062861669335	3.011140e+02
571.000563368208532	3.011161e+02
572.001080476734842	3.011181e+02
573.001612390215314	3.011200e+02
574.002157901395321	3.011218e+02
574.999637739490481	3.011234e+02
576.000208103055229	3.011248e+02
577.000790376419445	3.011262e+02
578.00138554894454	3.011273e+02
579.001995962862566	3.011283e+02
579.999544495687815	3.011292e+02
581.000190636220964	3.011301e+02
582.000857445269162	3.011308e+02
583.001547127940512	3.011316e+02
583.999183521675604	3.011323e+02
584.999926948589632	3.011331e+02
586.000700489218843	3.011340e+02
587.001506598911533	3.011349e+02
587.99926799382547	3.011359e+02
589.000145409217112	3.011369e+02
590.001061787678282	3.011381e+02
591.002019298079972	3.011393e+02
591.999939170705602	3.011405e+02
593.000983032244562	3.011417e+02
594.002072942547557	3.011430e+02
595.000129737546672	3.011442e+02
596.001316151765764	3.011455e+02
596.999472665188705	3.011466e+02
598.000761925122447	3.011478e+02
599.002104637616185	3.011489e+02
600.000419838153448	3.011500e+02
601.001870748756801	3.011510e+02
602.000295198039908	3.011521e+02
603.001856482751009	3.011531e+02
604.000391285519527	3.011541e+02
605.002064012870051	3.011552e+02
606.000709777146653	3.011563e+02
606.999409940374107	3.011575e+02
608.001245875481345	3.011587e+02
609.000049676068443	3.011599e+02
610.001977780122729	3.011611e+02
611.000845954300644	3.011624e+02
611.99973879132358	3.011637e+02
613.0017381606973	3.011650e+02
614.000676823116464	3.011665e+02
614.999639012873558	3.011683e+02
616.001711923290941	3.011703e+02
617.000734056203328	3.011724e+02
617.999790448542399	3.011745e+02
619.001965576661064	3.011766e+02
620.001094966328083	3.011787e+02
621.000264110250328	3.011807e+02
621.999473763055789	3.011827e+02
623.001807770423625	3.011846e+02
624.001097977880477	3.011865e+02
625.000428471307941	3.011884e+02
625.99979888765597	3.011903e+02
626.999206816023047	3.011921e+02
628.001734472853627	3.011939e+02
629.001210015546008	3.011956e+02
630.000717516821396	3.011973e+02
631.000256078500001	3.011989e+02
631.999825123270284	3.012006e+02
632.999426658020411	3.012021e+02
634.00214914754838	3.012036e+02
635.00182383606159	3.012050e+02
636.00153826904284	3.012063e+02
637.001295668469538	3.012075e+02
638.001098441052591	3.012087e+02
639.000949078242797	3.012100e+02
640.000852172062196	3.012112e+02
641.000811977679632	3.012125e+02
642.000826046606221	3.012138e+02
643.00088421093858	3.012151e+02
644.000987198982557	3.012164e+02
645.001135073950991	3.012177e+02
646.001327198662466	3.012191e+02
647.001564001378711	3.012204e+02
648.001846248315132	3.012218e+02
649.002175559720968	3.012232e+02
649.999466234982947	3.012246e+02
650.999894350096497	3.012260e+02
652.000373217148535	3.012274e+02
653.000902076524198	3.012288e+02
654.00147562295092	3.012301e+02
655.002088305455345	3.012314e+02
655.999648575967171	3.012328e+02
657.000332758057425	3.012341e+02
658.0010501714155	3.012353e+02
659.001800652544148	3.012365e+02
659.99949457924231	3.012378e+02
661.00031023942654	3.012389e+02
662.001159454296953	3.012401e+02
663.002044136727022	3.012412e+02
663.999875970023027	3.012424e+02
665.000834738074445	3.012436e+02
666.001832272214756	3.012449e+02
666.999780480688059	3.012461e+02
668.00086067640018	3.012474e+02
669.0019849067927	3.012486e+02
670.000066609870373	3.012498e+02
671.001289291633157	3.012508e+02
671.999475757621894	3.012517e+02
673.000807624938147	3.012525e+02
674.00218933117651	3.012533e+02
675.000530347012273	3.012540e+02
676.00201286504398	3.012546e+02
677.000455554626456	3.012552e+02
678.00203940307631	3.012558e+02
679.000578665894523	3.012563e+02
679.999162369956139	3.012570e+02
681.000880745148152	3.012577e+02
681.99954849522635	3.012585e+02
683.001348837939759	3.012594e+02
684.000098695633596	3.012603e+02
685.001982198614996	3.012613e+02
686.000816954055722	3.012622e+02
686.999697858463037	3.012630e+02
688.00171817598391	3.012637e+02
689.000696449352063	3.012643e+02
689.999727806012288	3.012649e+02
691.001907207350882	3.012654e+02
692.001049376099786	3.012659e+02
693.000249775258794	3.012664e+02
693.999509619646233	3.012669e+02
695.001924732240695	3.012675e+02
696.001309593331143	3.012683e+02
697.000760008039492	3.012692e+02
698.000278654198837	3.012701e+02
698.999867765049999	3.012711e+02
699.999528647373381	3.012722e+02
700.999261851223423	3.012733e+02
702.002166662328364	3.012745e+02
703.002048461605796	3.012756e+02
704.002016020040287	3.012767e+02
705.002067926577752	3.012776e+02
706.00220676286699	3.012784e+02
706.999339558774523	3.012792e+02
707.999660490636643	3.012798e+02
709.000074117678878	3.012805e+02
710.000580381524742	3.012811e+02
711.001179537292728	3.012818e+02
712.001873981621088	3.012825e+02
712.999567203269407	3.012833e+02
714.00045794582627	3.012841e+02
715.001450105897447	3.012850e+02
715.999448579511522	3.012859e+02
717.000655854154957	3.012869e+02
718.0019742138428	3.012879e+02
719.000305392174141	3.012889e+02
720.001852983587924	3.012899e+02
721.000416218402506	3.012909e+02
722.002200570993409	3.012918e+02
723.001008981241284	3.012928e+02
723.999950655311068	3.012937e+02
725.002133639869839	3.012946e+02
726.001353102790858	3.012954e+02
727.00071608947178	3.012962e+02
728.00022038558518	3.012970e+02
728.999871265919523	3.012979e+02
729.999674178006103	3.012988e+02
730.999624470423214	3.012999e+02
731.999723814716162	3.013010e+02
732.999981920546702	3.013021e+02
734.000399350975727	3.013033e+02
735.000982023089364	3.013046e+02
736.001751885511112	3.013058e+02
736.999619236443891	3.013070e+02
738.000802725583412	3.013081e+02
739.002187912777913	3.013092e+02
740.000664238488525	3.013104e+02
740.999335135875413	3.013117e+02
742.001306272409806	3.013130e+02
743.00035018367214	3.013144e+02
743.99957864434225	3.013159e+02
745.00209378730176	3.013174e+02
746.001656578055645	3.013188e+02
747.001380774958648	3.013203e+02
748.00126859852594	3.013218e+02
749.001303812227547	3.013231e+02
750.001478226125414	3.013245e+02
751.001804049645898	3.013257e+02
751.999170492685494	3.013269e+02
752.999809978551639	3.013279e+02
754.000617256708324	3.013289e+02
755.00160456231481	3.013296e+02
755.9996414509244	3.013303e+02
757.000951254417714	3.013309e+02
757.999294888358463	3.013316e+02
759.000917716026038	3.013324e+02
759.999566380384408	3.013333e+02
761.001471295675515	3.013343e+02
762.000398866962996	3.013354e+02
762.999480786557797	3.013365e+02
764.001828470308624	3.013376e+02
765.001191457607433	3.013386e+02
766.000702680357449	3.013396e+02
767.000354804227186	3.013405e+02
768.000129205270241	3.013413e+02
769.000031120643371	3.013421e+02
770.000070989382039	3.013429e+02
771.000232985301295	3.013437e+02
772.000507517313849	3.013445e+02
773.00091097560221	3.013452e+02
774.001447959901384	3.013459e+02
774.998969051475342	3.013466e+02
775.999733179126224	3.013474e+02
777.000628535097917	3.013482e+02
777.998511779941055	3.013490e+02
778.999625465291729	3.013498e+02
780.000852992181535	3.013506e+02
780.999067502251023	3.013514e+02
782.000501651750483	3.013521e+02
782.998890402950906	3.013527e+02
784.000510709332616	3.013533e+02
784.999095951145591	3.013538e+02
786.000885146906739	3.013542e+02
786.999626701129273	3.013545e+02
788.001601758150173	3.013549e+02
789.000530123687213	3.013552e+02
789.999530848230279	3.013555e+02
790.99862715721315	3.013559e+02
792.000951261299747	3.013564e+02
793.000211673519857	3.013569e+02
793.999551064803086	3.013577e+02
794.998993047389376	3.013585e+02
795.998539242270454	3.013594e+02
797.00121385970408	3.013605e+02
798.00083212691186	3.013616e+02
799.000522314330169	3.013627e+02
800.000250605756605	3.013638e+02
801.000017169912667	3.013649e+02
801.999842073571358	3.013660e+02
802.999706484609419	3.013670e+02
803.999582733291618	3.013681e+02
804.999482047756146	3.013692e+02
805.999415658781686	3.013703e+02
806.999351759117303	3.013713e+02
807.999274949151413	3.013725e+02
808.999208724711366	3.013736e+02
809.99914808867095	3.013747e+02
810.999056193766251	3.013758e+02
811.998932488494233	3.013769e+02
812.998803996338438	3.013781e+02
813.998654002002354	3.013791e+02
815.001579920991389	3.013801e+02
816.00133257523828	3.013813e+02
817.001074908216992	3.013824e+02
818.000771926080461	3.013832e+02
819.000393426636151	3.013842e+02
819.999981202322829	3.013852e+02
820.999550655257735	3.013862e+02
821.99903903299446	3.013868e+02
823.001566279714211	3.013875e+02
824.000924564271259	3.013885e+02
825.000221582081508	3.013889e+02
825.999382328954994	3.013891e+02
827.001587692406019	3.013896e+02
828.000627895948355	3.013899e+02
828.999551449502519	3.013898e+02
830.001467451544841	3.013898e+02
831.00021531107916	3.013901e+02
831.998895971035608	3.013898e+02
833.00053533753794	3.013895e+02
833.998955071971295	3.013896e+02
835.00047699596098	3.013896e+02
835.998715522652674	3.013892e+02
836.999930671296283	3.013892e+02
838.001123477570104	3.013893e+02
838.999081881752318	3.013890e+02
839.999970080385197	3.013885e+02
841.000794857779169	3.013886e+02
842.001560905365864	3.013882e+02
842.999001408825166	3.013875e+02
843.999452529910513	3.013871e+02
844.999872326116702	3.013865e+02
846.00012386627759	3.013855e+02
847.000222763155534	3.013847e+02
848.000292433634058	3.013839e+02
849.000242785677756	3.013829e+02
850.00002896157423	3.013816e+02
850.999761643604757	3.013808e+02
851.999393702273892	3.013798e+02
852.998859638489989	3.013786e+02
854.001360649677281	3.013775e+02
855.000657095778593	3.013764e+02
855.999813643532775	3.013751e+02
856.998873063266615	3.013740e+02
858.000986364875075	3.013728e+02
858.999868720381755	3.013715e+02
859.998649532608965	3.013702e+02
861.000471721768236	3.013689e+02
861.999066316743551	3.013676e+02
863.00067494956329	3.013661e+02
863.999087793853846	3.013648e+02
865.000544472149613	3.013633e+02
865.998803714020937	3.013619e+02
867.000122603809928	3.013605e+02
868.001384262134707	3.013591e+02
868.999472388112508	3.013576e+02
870.000643261292907	3.013562e+02
870.998667684868224	3.013547e+02
871.999782446837344	3.013531e+02
873.000874958462532	3.013515e+02
873.998827776105145	3.013499e+02
874.999872922336863	3.013482e+02
876.000892789683121	3.013464e+02
876.998770256755165	3.013446e+02
877.999739486612611	3.013428e+02
879.000683825170086	3.013409e+02
880.001608363271998	3.013390e+02
880.999396520939513	3.013371e+02
882.000287412664647	3.013351e+02
883.001169270520791	3.013331e+02
883.998928084996123	3.013312e+02
884.999805708670237	3.013292e+02
886.000690875077112	3.013273e+02
887.001587333905491	3.013255e+02
887.999378046442303	3.013238e+02
889.000298849841215	3.013222e+02
890.001227169192589	3.013207e+02
890.999038491454712	3.013193e+02
891.999963323031352	3.013180e+02
893.000877356106457	3.013168e+02
893.998656425749232	3.013157e+02
894.999532193965592	3.013147e+02
896.00038300383892	3.013137e+02
897.001206450445807	3.013127e+02
897.998883302916397	3.013118e+02
898.999649348573598	3.013109e+02
900.000386891797802	3.013101e+02
901.001097298132891	3.013093e+02
901.998664901937559	3.013085e+02
902.999325858317889	3.013078e+02
903.999963408500321	3.013071e+02
905.00057879198755	3.013065e+02
906.001172663939997	3.013059e+02
906.998627661731803	3.013053e+02
907.999177637872663	3.013047e+02
908.999704328773987	3.013042e+02
910.000205979892371	3.013036e+02
911.000680661403294	3.013031e+02
912.001126076367655	3.013025e+02
913.0015389069398	3.013019e+02
913.998800052091042	3.013014e+02