# Region type : patch node2U_3_Outlet_0
#   Faces  : 148
#   Area   : 1.734676e-02
#        Time	areaAverage(T)
     0.999427	3.001500e+02
      2.00049	3.001500e+02
      3.00031	3.001500e+02
      3.99974	3.001500e+02
     4.999837	3.001500e+02
      6.00101	3.001500e+02
     7.000448	3.001500e+02
     8.000372	3.001500e+02
     9.000012	3.001500e+02
   10.0011397	3.001500e+02
   11.0005124	3.001681e+02
   12.0006243	3.001861e+02
    13.001107	3.002040e+02
   13.9997402	3.002218e+02
  14.99964955	3.002396e+02
  15.99955708	3.002572e+02
  17.00134405	3.002747e+02
  18.00000337	3.002921e+02
  19.00006167	3.003095e+02
 20.001505108	3.003269e+02
 20.999254464	3.003442e+02
  22.00150266	3.003615e+02
 23.001714829	3.003787e+02
 23.999634984	3.003958e+02
25.00095516804	3.004129e+02
25.9996836352	3.004298e+02
26.99932842931	3.004466e+02
28.00029166142	3.004634e+02
28.99937441246	3.004800e+02
30.002134441893	3.004966e+02
31.002014765417	3.005131e+02
32.001552166551	3.005294e+02
33.000560257147	3.005456e+02
33.999249928093	3.005617e+02
35.00108530523362	3.005777e+02
36.00057592118466	3.005935e+02
37.00120630448001	3.006094e+02
38.00022932106895	3.006251e+02
39.00052258115672	3.006409e+02
40.0012943804983152	3.006568e+02
41.0019879837090926	3.006728e+02
41.9992708912271695	3.006888e+02
43.0021545135227328	3.007051e+02
44.0019391598090266	3.007214e+02
44.9992995861729526	3.007378e+02
46.0009844670853099	3.007544e+02
47.0014489491798813	3.007710e+02
48.0008801364990703	3.007877e+02
48.9995304912996801	3.008043e+02
50.0001794237682375	3.008210e+02
50.9993551299025256	3.008376e+02
51.9998205148969248	3.008542e+02
53.0015311001695864	3.008708e+02
54.0013696283965601	3.008873e+02
54.9993238877661597	3.009037e+02
56.0015339065886479	3.009202e+02
57.0018205760141825	3.009367e+02
58.000096433294182	3.009531e+02
58.9991359299691496	3.009696e+02
60.0016627635771727	3.009861e+02
61.0010778941215932	3.010026e+02
62.0000130700834902	3.010191e+02
63.0010986270090001	3.010356e+02
64.0009690790207202	3.010522e+02
64.9994918949116851	3.010687e+02
65.9998560646141783	3.010854e+02
66.9992477683962306	3.011020e+02
68.0009249354785794	3.011187e+02
69.0019475640447695	3.011354e+02
69.9993513960609874	3.011521e+02
70.9993591323269015	3.011688e+02
72.0020465187059102	3.011856e+02
73.0013581031466714	3.012023e+02
74.000423255190384	3.012190e+02
74.9993458644687365	3.012357e+02
76.0013508435945511	3.012525e+02
77.0005510755528491	3.012692e+02
78.0000113736252843	3.012859e+02
78.9992549610128236	3.013026e+02
80.0009720943383229	3.013193e+02
81.0020589541296232	3.013360e+02
81.9992454193614009	3.013526e+02
83.0014611672898184	3.013693e+02
83.9993628440124525	3.013859e+02
85.0020431376517678	3.014025e+02
86.000333987758637	3.014191e+02
87.0003695380874404	3.014357e+02
88.0020658759812022	3.014523e+02
88.9993795452335519	3.014688e+02
90.0015696379174557	3.014853e+02
90.9997903684166971	3.015018e+02
92.0003898830139377	3.015184e+02
93.0006194266289867	3.015349e+02
94.0007057145538596	3.015513e+02
95.0007997335581251	3.015678e+02
96.0009686444809773	3.015843e+02
97.0012373806239623	3.016007e+02
98.0016053172324462	3.016171e+02
99.0020344570527584	3.016335e+02
99.9994552294174497	3.016499e+02
100.999851234731452	3.016662e+02
102.000136850138333	3.016825e+02
103.000241500016131	3.016988e+02
104.000073061910427	3.017151e+02
104.999552930719901	3.017313e+02
106.001633206025147	3.017476e+02
107.000192996165325	3.017638e+02
108.001260471577879	3.017799e+02
109.001819915586253	3.017961e+02
110.001932009313407	3.018122e+02
111.001635624775176	3.018283e+02
112.000980310532839	3.018443e+02
113.000018915714335	3.018604e+02
114.001807672044521	3.018764e+02
115.000361508444968	3.018924e+02
116.001781982353393	3.019083e+02
117.000048097326257	3.019242e+02
118.00122264940498	3.019401e+02
118.999382617868164	3.019559e+02
120.000616562993542	3.019718e+02
121.002007225989203	3.019875e+02
122.000661640430124	3.020032e+02
122.999734831133267	3.020188e+02
123.99952262735836	3.020344e+02
125.000333848736219	3.020499e+02
125.999642959708595	3.020653e+02
127.000956414914896	3.020807e+02
128.001293686371213	3.020960e+02
129.000700621259568	3.021112e+02
130.002135701572797	3.021263e+02
130.999533849213833	3.021413e+02
131.999244240588723	3.021564e+02
133.001101245812436	3.021714e+02
134.0020971077968	3.021863e+02
135.002075643628388	3.022013e+02
136.000848975566782	3.022162e+02
137.001309026256649	3.022311e+02
138.000254544982795	3.022459e+02
139.000649575250975	3.022608e+02
139.999224934568531	3.022756e+02
141.002036637829093	3.022904e+02
141.999654446908238	3.023052e+02
143.001271960468813	3.023200e+02
144.000548532269903	3.023347e+02
145.00044839448563	3.023494e+02
146.000849050599697	3.023641e+02
147.001677167223932	3.023788e+02
147.99975047252525	3.023935e+02
149.001369451029944	3.024081e+02
150.000282434108982	3.024226e+02
150.999551328031998	3.024371e+02
151.999184896249147	3.024516e+02
152.999208185270845	3.024661e+02
153.999585696359787	3.024805e+02
155.00029833082661	3.024948e+02
156.001343237128225	3.025092e+02
156.999457705577299	3.025234e+02
158.000686168546764	3.025377e+02
159.001776087131674	3.025519e+02
159.999561059721657	3.025661e+02
161.000550527382018	3.025802e+02
162.001972559951867	3.025943e+02
163.000888609676053	3.026083e+02
164.000316687785954	3.026223e+02
165.000096140130211	3.026362e+02
166.000088612179667	3.026502e+02
167.000061340522421	3.026641e+02
167.999782828424799	3.026779e+02
168.999172341489157	3.026917e+02
170.001230534148533	3.027055e+02
170.999544804163264	3.027192e+02
172.00045496321485	3.027328e+02
173.000757901779707	3.027463e+02
174.000444045117518	3.027598e+02
174.999760596408947	3.027732e+02
176.002157779350711	3.027866e+02
177.001661582702695	3.027998e+02
178.001628294344187	3.028131e+02
178.999162606507298	3.028262e+02
180.000503473761029	3.028393e+02
180.999207866690625	3.028523e+02
182.001208593017452	3.028653e+02
183.000047488950003	3.028781e+02
184.001808139786192	3.028910e+02
184.999937399233318	3.029037e+02
186.000595667805044	3.029163e+02
187.000530755139152	3.029288e+02
187.999425330199387	3.029412e+02
189.000062339945401	3.029535e+02
189.999357851741564	3.029657e+02
191.001057008974414	3.029778e+02
191.999795576908383	3.029898e+02
193.002046035564831	3.030017e+02
194.001168212745995	3.030133e+02
195.000232847940111	3.030248e+02
195.99953641592225	3.030360e+02
196.999439237675062	3.030471e+02
197.999269378639354	3.030582e+02
199.000650340503455	3.030692e+02
200.000842022656059	3.030801e+02
201.00119110761409	3.030909e+02
202.001134602567248	3.031016e+02
202.999417775043128	3.031121e+02
204.000827370954454	3.031226e+02
205.000559713225243	3.031329e+02
206.000502514791634	3.031431e+02
207.00011763453864	3.031532e+02
207.999195525308778	3.031632e+02
209.000671541921633	3.031731e+02
210.001817201873507	3.031831e+02
211.0002458890323	3.031929e+02
211.999364130299796	3.032026e+02
213.001839980993253	3.032122e+02
214.000870215088923	3.032217e+02
215.002023773923156	3.032311e+02
216.001504856122665	3.032404e+02
217.002189670235424	3.032495e+02
218.001143521538211	3.032586e+02
219.001212277794565	3.032675e+02
219.999323567592427	3.032763e+02
221.002031393932299	3.032850e+02
222.000217558785977	3.032936e+02
222.99997324448853	3.033021e+02
224.001867206834618	3.033104e+02
225.000375206176443	3.033186e+02
226.00200082573221	3.033267e+02
227.000972114187221	3.033346e+02
228.000539892764351	3.033425e+02
229.000893584517286	3.033503e+02
229.999159920018428	3.033579e+02
231.001639840260879	3.033656e+02
231.999283063040082	3.033731e+02
233.00130211069677	3.033807e+02
234.001698960598503	3.033882e+02
235.000597990278322	3.033958e+02
236.001193587127887	3.034034e+02
237.000556169397072	3.034111e+02
238.001863471893813	3.034188e+02
239.002111919382003	3.034266e+02
240.001418570662111	3.034346e+02
240.999928434963607	3.034426e+02
242.000753346005581	3.034507e+02
243.000790839895984	3.034588e+02
244.000120610590187	3.034670e+02
245.0016559814066	3.034753e+02
246.000482859716641	3.034835e+02
246.99990715638009	3.034918e+02
247.999403010268622	3.035001e+02
249.001563930534189	3.035084e+02
249.99991638000995	3.035167e+02
251.00124377511591	3.035249e+02
252.000612908785769	3.035332e+02
253.001586776589619	3.035414e+02
254.001036030762123	3.035497e+02
254.999975551401036	3.035578e+02
256.000901604547437	3.035659e+02
257.000429744924418	3.035740e+02
258.001671223638084	3.035819e+02
259.001589548794925	3.035898e+02
260.000266655218695	3.035976e+02
261.000969535167712	3.036052e+02
262.000494430921947	3.036128e+02
263.002051357954429	3.036203e+02
263.999663054152222	3.036276e+02
264.999816340629877	3.036348e+02
265.999646482167861	3.036419e+02
266.999122460407477	3.036488e+02
268.001488989346399	3.036556e+02
269.000493605175279	3.036623e+02
270.001990224823089	3.036690e+02
270.999337872084311	3.036756e+02
272.001339823267472	3.036822e+02
273.001474013986467	3.036888e+02
273.999720630411105	3.036954e+02
274.999301622459257	3.037021e+02
276.00038858779908	3.037089e+02
277.000037429810845	3.037157e+02
277.99913815271151	3.037225e+02
279.001896234752223	3.037293e+02
279.999861762659407	3.037361e+02
280.999488359605721	3.037429e+02
282.000390167863145	3.037497e+02
283.001987050804189	3.037564e+02
284.000403045574728	3.037630e+02
285.001459538132849	3.037696e+02
286.001911629869539	3.037761e+02
287.001710184502201	3.037824e+02
288.000877315806576	3.037886e+02
288.999535921458005	3.037947e+02
290.000849147452925	3.038007e+02
291.001784583192489	3.038067e+02
291.999470265078116	3.038127e+02
293.000350726228248	3.038187e+02
294.001453998386921	3.038247e+02
294.99966250983897	3.038308e+02
296.001136649546311	3.038370e+02
296.999687551871489	3.038432e+02
298.001247068601629	3.038495e+02
298.999548585051969	3.038558e+02
300.000750059626967	3.038621e+02
301.001680673730334	3.038684e+02
301.999163971664927	3.038747e+02
302.999367282612582	3.038810e+02
303.999165754537898	3.038872e+02
305.001521887055901	3.038934e+02
306.000375119051853	3.038995e+02
307.001951876416115	3.039056e+02
308.000142042528466	3.039116e+02
309.001212895246681	3.039177e+02
309.999178614301854	3.039237e+02
311.000144539620237	3.039298e+02
312.001033491892031	3.039359e+02
313.001930242594824	3.039420e+02
313.999795573081769	3.039481e+02
315.000737111554429	3.039543e+02
316.001795102997278	3.039605e+02
317.00001860641413	3.039667e+02
318.001569055336915	3.039729e+02
319.000370431756608	3.039791e+02
319.999538897728996	3.039853e+02
321.002128177021007	3.039915e+02
322.001976849831294	3.039977e+02
323.002194787671499	3.040039e+02
323.999791101614449	3.040100e+02
325.000926405668565	3.040161e+02
325.999464392117318	3.040222e+02
327.001583740419449	3.040283e+02
328.001120124628414	3.040343e+02
329.001056924662748	3.040403e+02
330.001316807607054	3.040463e+02
331.001922953082271	3.040522e+02
331.999820607277798	3.040582e+02
333.001108668105701	3.040641e+02
333.999592450065279	3.040700e+02
335.001430012474145	3.040759e+02
336.000445902539866	3.040819e+02
336.999658818477883	3.040878e+02
338.002156064041969	3.040937e+02
339.001851563835544	3.040997e+02
340.001899743984723	3.041056e+02
340.999156465230499	3.041116e+02
341.999853923984119	3.041176e+02
343.000704997008711	3.041236e+02
344.001376858938784	3.041297e+02
345.00203887706607	3.041358e+02
345.999955215504826	3.041418e+02
347.000522663162087	3.041479e+02
348.000200029152836	3.041540e+02
349.000522755694988	3.041601e+02
350.001253613143035	3.041662e+02
351.000624273237918	3.041722e+02
351.999435802063715	3.041782e+02
353.002196744729815	3.041842e+02
354.001070048515999	3.041902e+02
355.001641036799754	3.041961e+02
355.999599629701663	3.042019e+02
357.000540487227624	3.042078e+02
358.000075444862205	3.042136e+02
358.999302800154226	3.042194e+02
360.001709987803054	3.042253e+02
361.000074298292702	3.042311e+02
362.000859290272558	3.042369e+02
363.001622746756937	3.042427e+02
364.001832563596452	3.042485e+02
365.001535463384243	3.042544e+02
366.00131467837474	3.042602e+02
367.00110538924082	3.042660e+02
368.000736030787152	3.042718e+02
369.000275218586978	3.042776e+02
369.999824276884169	3.042834e+02
370.999426774194205	3.042891e+02
372.002080612393968	3.042948e+02
373.001588932385062	3.043004e+02
374.001081446833666	3.043060e+02
375.000626116571937	3.043115e+02
376.000218547876443	3.043170e+02
376.999910591726973	3.043224e+02
377.999797780145002	3.043278e+02
378.999906813743962	3.043332e+02
380.000244808336674	3.043386e+02
381.000865619572778	3.043440e+02
382.001806304484546	3.043495e+02
382.999946272056377	3.043549e+02
384.001355606036498	3.043603e+02
384.99985631053687	3.043658e+02
386.0015402976166	3.043713e+02
387.000162701931743	3.043767e+02
388.001801501548812	3.043822e+02
389.000300444038373	3.043877e+02
390.001742707954349	3.043931e+02
390.99990443699852	3.043986e+02
392.000936197689441	3.044040e+02
393.00177492471073	3.044094e+02
393.999328852185783	3.044147e+02
394.999780108992752	3.044201e+02
396.000134804692266	3.044254e+02
397.00042004616688	3.044307e+02
398.000667031307955	3.044360e+02
399.000931769728538	3.044414e+02
400.001227470614424	3.044467e+02
401.001544797640236	3.044520e+02
402.001902596511854	3.044573e+02
402.999246021227464	3.044627e+02
403.999704245461601	3.044680e+02
405.000213976000339	3.044734e+02
406.000785726507388	3.044787e+02
407.001408508531085	3.044841e+02
408.002071314539194	3.044894e+02
408.999708595374841	3.044947e+02
410.000459919667492	3.045001e+02
411.001252828558734	3.045054e+02
412.002098628850092	3.045107e+02
412.999937502784405	3.045160e+02
414.000908309496879	3.045213e+02
415.001942485681127	3.045266e+02
415.999966713914432	3.045318e+02
417.001110452812043	3.045370e+02
417.999223947442431	3.045422e+02
419.000449839982025	3.045474e+02
420.001714127287812	3.045526e+02
420.999943618431587	3.045577e+02
422.001290078822194	3.045629e+02
422.999615985253001	3.045680e+02
424.001060314288623	3.045731e+02
424.999478222599919	3.045782e+02
426.001017745420938	3.045833e+02
426.999530720086625	3.045884e+02
428.001152874177365	3.045935e+02
428.999734515582077	3.045986e+02
430.001408625449528	3.046037e+02
431.000010340225799	3.046088e+02
432.001667839199797	3.046139e+02
433.000221815074497	3.046190e+02
434.001804251808949	3.046242e+02
435.000261415516377	3.046293e+02
436.001731095603191	3.046344e+02
437.000062707295285	3.046394e+02
438.001391866866186	3.046445e+02
438.999570770102707	3.046496e+02
440.000737846380048	3.046546e+02
441.00182111589163	3.046596e+02
441.999771361342766	3.046646e+02
443.000763413799177	3.046696e+02
444.001696459830953	3.046745e+02
444.999500435886944	3.046795e+02
446.00032752414711	3.046844e+02
447.001117645498596	3.046893e+02
448.001883226712721	3.046943e+02
448.999571098762033	3.046992e+02
450.00033578121878	3.047041e+02
451.00111711588346	3.047091e+02
452.001919501336943	3.047140e+02
452.999672442533097	3.047189e+02
454.000509144188925	3.047239e+02
455.001349657630726	3.047288e+02
456.002184940512961	3.047337e+02
456.999938224470498	3.047386e+02
458.000744652436538	3.047435e+02
459.001531729330225	3.047484e+02
459.999229727689283	3.047533e+02
460.999980922561065	3.047581e+02
462.000721221335311	3.047629e+02
463.001457879234579	3.047677e+02
464.002198438059679	3.047725e+02
464.999883907378376	3.047773e+02
466.000675712563577	3.047820e+02
467.001515884230287	3.047867e+02
467.999330505639648	3.047915e+02
469.000266807748972	3.047962e+02
470.001261089356149	3.048009e+02
470.999245163364833	3.048055e+02
472.000360361590424	3.048102e+02
473.001534471459308	3.048149e+02
473.99969086704948	3.048196e+02
475.000964073942441	3.048243e+02
475.999201404603866	3.048290e+02
477.000533716233122	3.048337e+02
478.001873839315238	3.048384e+02
479.000134933457161	3.048431e+02
480.001446950719014	3.048478e+02
480.999654544415421	3.048525e+02
482.00089220139256	3.048571e+02
483.002083364948987	3.048618e+02
484.000154946090731	3.048664e+02
485.001249816296991	3.048711e+02
485.999230737996697	3.048757e+02
487.00024615858581	3.048803e+02
488.001234027089424	3.048849e+02
488.999135972829379	3.048895e+02
490.000107037485407	3.048941e+02
491.001090819159572	3.048986e+02
492.002101665974578	3.049032e+02
493.00008301340813	3.049077e+02
494.001188349803726	3.049123e+02
494.999284798957547	3.049168e+02
496.000521798226259	3.049213e+02
497.001832923759764	3.049258e+02
498.000146640750472	3.049304e+02
499.001605196865512	3.049349e+02
500.000061963698101	3.049394e+02
501.001655800322453	3.049439e+02
502.000234992100616	3.049484e+02
503.001937609868378	3.049530e+02
504.000610741995047	3.049575e+02
504.999319615887543	3.049620e+02
506.001131858100678	3.049665e+02
506.999897443339478	3.049709e+02
508.001760645684897	3.049754e+02
509.00057494393468	3.049799e+02
509.999413898640967	3.049843e+02
511.001351703648083	3.049888e+02
512.000243591651156	3.049932e+02
512.999166595937822	3.049976e+02
514.001198888276008	3.050020e+02
515.000197471901288	3.050064e+02
515.999240191230342	3.050107e+02
517.001404900109492	3.050151e+02
518.000546014341694	3.050195e+02
518.9997392945819	3.050238e+02
520.002060063838258	3.050282e+02
521.001358525883006	3.050326e+02
522.000709177407316	3.050369e+02
523.000105090532884	3.050413e+02
523.999529934207544	3.050456e+02
525.002084781041731	3.050499e+02
526.001622665853461	3.050543e+02
527.001171985616338	3.050586e+02
528.000721685101212	3.050629e+02
529.000262130536157	3.050672e+02
529.999796097172407	3.050716e+02
530.999318975361916	3.050759e+02
532.001899480313568	3.050802e+02
533.001399512774583	3.050844e+02
534.000900020699419	3.050887e+02
535.000404316961408	3.050930e+02
535.999921060856764	3.050972e+02
536.999458418444192	3.051015e+02
538.002103412542056	3.051057e+02
539.001714787084325	3.051099e+02
540.001366371732502	3.051142e+02
541.001061457090373	3.051184e+02
542.000809750296298	3.051226e+02
543.000609536481306	3.051267e+02
544.000457062784562	3.051309e+02
545.000356160035494	3.051351e+02
546.000305324828219	3.051393e+02
547.000296519477502	3.051434e+02
548.00032856348605	3.051476e+02
549.00039992437064	3.051517e+02
550.00050195823269	3.051559e+02
551.000628867013802	3.051600e+02
552.000778619984771	3.051641e+02
553.000945071355659	3.051682e+02
554.001124319738892	3.051724e+02
555.001316586008329	3.051765e+02
556.001519320644888	3.051806e+02
557.001731672484084	3.051846e+02
558.001954675918114	3.051887e+02
559.002190567552361	3.051928e+02
559.999362884992479	3.051968e+02
560.999630826612474	3.052009e+02
561.999920830554856	3.052049e+02
563.000235633839111	3.052089e+02
564.000576550278424	3.052129e+02
565.000944078801922	3.052169e+02
566.001337432372793	3.052209e+02
567.001755222184784	3.052249e+02
568.002196495543558	3.052289e+02
568.999580920182666	3.052329e+02
570.000062861669335	3.052369e+02
571.000563368208532	3.052408e+02
572.001080476734842	3.052448e+02
573.001612390215314	3.052487e+02
574.002157901395321	3.052527e+02
574.999637739490481	3.052566e+02
576.000208103055229	3.052605e+02
577.000790376419445	3.052645e+02
578.00138554894454	3.052684e+02
579.001995962862566	3.052723e+02
579.999544495687815	3.052762e+02
581.000190636220964	3.052800e+02
582.000857445269162	3.052839e+02
583.001547127940512	3.052878e+02
583.999183521675604	3.052916e+02
584.999926948589632	3.052955e+02
586.000700489218843	3.052993e+02
587.001506598911533	3.053032e+02
587.99926799382547	3.053070e+02
589.000145409217112	3.053108e+02
590.001061787678282	3.053146e+02
591.002019298079972	3.053184e+02
591.999939170705602	3.053221e+02
593.000983032244562	3.053259e+02
594.002072942547557	3.053297e+02
595.000129737546672	3.053334e+02
596.001316151765764	3.053372e+02
596.999472665188705	3.053409e+02
598.000761925122447	3.053446e+02
599.002104637616185	3.053483e+02
600.000419838153448	3.053521e+02
601.001870748756801	3.053558e+02
602.000295198039908	3.053594e+02
603.001856482751009	3.053631e+02
604.000391285519527	3.053668e+02
605.002064012870051	3.053705e+02
606.000709777146653	3.053741e+02
606.999409940374107	3.053778e+02
608.001245875481345	3.053814e+02
609.000049676068443	3.053850e+02
610.001977780122729	3.053887e+02
611.000845954300644	3.053923e+02
611.99973879132358	3.053959e+02
613.0017381606973	3.053995e+02
614.000676823116464	3.054030e+02
614.999639012873558	3.054066e+02
616.001711923290941	3.054102e+02
617.000734056203328	3.054138e+02
617.999790448542399	3.054173e+02
619.001965576661064	3.054209e+02
620.001094966328083	3.054244e+02
621.000264110250328	3.054280e+02
621.999473763055789	3.054315e+02
623.001807770423625	3.054350e+02
624.001097977880477	3.054386e+02
625.000428471307941	3.054421e+02
625.99979888765597	3.054456e+02
626.999206816023047	3.054491e+02
628.001734472853627	3.054526e+02
629.001210015546008	3.054561e+02
630.000717516821396	3.054596e+02
631.000256078500001	3.054631e+02
631.999825123270284	3.054666e+02
632.999426658020411	3.054700e+02
634.00214914754838	3.054735e+02
635.00182383606159	3.054770e+02
636.00153826904284	3.054804e+02
637.001295668469538	3.054838e+02
638.001098441052591	3.054873e+02
639.000949078242797	3.054907e+02
640.000852172062196	3.054941e+02
641.000811977679632	3.054975e+02
642.000826046606221	3.055009e+02
643.00088421093858	3.055043e+02
644.000987198982557	3.055077e+02
645.001135073950991	3.055110e+02
646.001327198662466	3.055144e+02
647.001564001378711	3.055178e+02
648.001846248315132	3.055211e+02
649.002175559720968	3.055245e+02
649.999466234982947	3.055278e+02
650.999894350096497	3.055311e+02
652.000373217148535	3.055344e+02
653.000902076524198	3.055377e+02
654.00147562295092	3.055410e+02
655.002088305455345	3.055443e+02
655.999648575967171	3.055476e+02
657.000332758057425	3.055509e+02
658.0010501714155	3.055541e+02
659.001800652544148	3.055574e+02
659.99949457924231	3.055606e+02
661.00031023942654	3.055639e+02
662.001159454296953	3.055671e+02
663.002044136727022	3.055703e+02
663.999875970023027	3.055736e+02
665.000834738074445	3.055768e+02
666.001832272214756	3.055800e+02
666.999780480688059	3.055832e+02
668.00086067640018	3.055863e+02
669.0019849067927	3.055895e+02
670.000066609870373	3.055927e+02
671.001289291633157	3.055958e+02
671.999475757621894	3.055990e+02
673.000807624938147	3.056021e+02
674.00218933117651	3.056053e+02
675.000530347012273	3.056084e+02
676.00201286504398	3.056115e+02
677.000455554626456	3.056146e+02
678.00203940307631	3.056177e+02
679.000578665894523	3.056208e+02
679.999162369956139	3.056239e+02
681.000880745148152	3.056270e+02
681.99954849522635	3.056300e+02
683.001348837939759	3.056331e+02
684.000098695633596	3.056361e+02
685.001982198614996	3.056392e+02
686.000816954055722	3.056422e+02
686.999697858463037	3.056452e+02
688.00171817598391	3.056483e+02
689.000696449352063	3.056513e+02
689.999727806012288	3.056543e+02
691.001907207350882	3.056573e+02
692.001049376099786	3.056602e+02
693.000249775258794	3.056632e+02
693.999509619646233	3.056662e+02
695.001924732240695	3.056692e+02
696.001309593331143	3.056721e+02
697.000760008039492	3.056750e+02
698.000278654198837	3.056780e+02
698.999867765049999	3.056809e+02
699.999528647373381	3.056838e+02
700.999261851223423	3.056867e+02
702.002166662328364	3.056897e+02
703.002048461605796	3.056926e+02
704.002016020040287	3.056954e+02
705.002067926577752	3.056983e+02
706.00220676286699	3.057012e+02
706.999339558774523	3.057041e+02
707.999660490636643	3.057069e+02
709.000074117678878	3.057098e+02
710.000580381524742	3.057127e+02
711.001179537292728	3.057155e+02
712.001873981621088	3.057183e+02
712.999567203269407	3.057212e+02
714.00045794582627	3.057240e+02
715.001450105897447	3.057268e+02
715.999448579511522	3.057296e+02
717.000655854154957	3.057324e+02
718.0019742138428	3.057352e+02
719.000305392174141	3.057380e+02
720.001852983587924	3.057408e+02
721.000416218402506	3.057435e+02
722.002200570993409	3.057463e+02
723.001008981241284	3.057491e+02
723.999950655311068	3.057518e+02
725.002133639869839	3.057546e+02
726.001353102790858	3.057573e+02
727.00071608947178	3.057600e+02
728.00022038558518	3.057627e+02
728.999871265919523	3.057655e+02
729.999674178006103	3.057682e+02
730.999624470423214	3.057709e+02
731.999723814716162	3.057736e+02
732.999981920546702	3.057763e+02
734.000399350975727	3.057789e+02
735.000982023089364	3.057816e+02
736.001751885511112	3.057843e+02
736.999619236443891	3.057869e+02
738.000802725583412	3.057896e+02
739.002187912777913	3.057923e+02
740.000664238488525	3.057949e+02
740.999335135875413	3.057975e+02
742.001306272409806	3.058002e+02
743.00035018367214	3.058028e+02
743.99957864434225	3.058054e+02
745.00209378730176	3.058080e+02
746.001656578055645	3.058107e+02
747.001380774958648	3.058133e+02
748.00126859852594	3.058159e+02
749.001303812227547	3.058185e+02
750.001478226125414	3.058210e+02
751.001804049645898	3.058236e+02
751.999170492685494	3.058262e+02
752.999809978551639	3.058288e+02
754.000617256708324	3.058313e+02
755.00160456231481	3.058339e+02
755.9996414509244	3.058364e+02
757.000951254417714	3.058390e+02
757.999294888358463	3.058415e+02
759.000917716026038	3.058441e+02
759.999566380384408	3.058466e+02
761.001471295675515	3.058491e+02
762.000398866962996	3.058516e+02
762.999480786557797	3.058541e+02
764.001828470308624	3.058566e+02
765.001191457607433	3.058591e+02
766.000702680357449	3.058616e+02
767.000354804227186	3.058640e+02
768.000129205270241	3.058665e+02
769.000031120643371	3.058690e+02
770.000070989382039	3.058714e+02
771.000232985301295	3.058739e+02
772.000507517313849	3.058763e+02
773.00091097560221	3.058783e+02
774.001447959901384	3.058808e+02
774.998969051475342	3.058832e+02
775.999733179126224	3.058856e+02
777.000628535097917	3.058880e+02
777.998511779941055	3.058904e+02
778.999625465291729	3.058928e+02
780.000852992181535	3.058952e+02
780.999067502251023	3.058976e+02
782.000501651750483	3.059000e+02
782.998890402950906	3.059023e+02
784.000510709332616	3.059047e+02
784.999095951145591	3.059070e+02
786.000885146906739	3.059094e+02
786.999626701129273	3.059117e+02
788.001601758150173	3.059141e+02
789.000530123687213	3.059164e+02
789.999530848230279	3.059187e+02
790.99862715721315	3.059210e+02
792.000951261299747	3.059233e+02
793.000211673519857	3.059256e+02
793.999551064803086	3.059279e+02
794.998993047389376	3.059302e+02
795.998539242270454	3.059325e+02
797.00121385970408	3.059348e+02
798.00083212691186	3.059370e+02
799.000522314330169	3.059393e+02
800.000250605756605	3.059415e+02
801.000017169912667	3.059438e+02
801.999842073571358	3.059460e+02
802.999706484609419	3.059483e+02
803.999582733291618	3.059505e+02
804.999482047756146	3.059527e+02
805.999415658781686	3.059550e+02
806.999351759117303	3.059572e+02
807.999274949151413	3.059594e+02
808.999208724711366	3.059616e+02
809.99914808867095	3.059638e+02
810.999056193766251	3.059660e+02
811.998932488494233	3.059682e+02
812.998803996338438	3.059704e+02
813.998654002002354	3.059726e+02
815.001579920991389	3.059748e+02
816.00133257523828	3.059770e+02
817.001074908216992	3.059792e+02
818.000771926080461	3.059813e+02
819.000393426636151	3.059835e+02
819.999981202322829	3.059857e+02
820.999550655257735	3.059878e+02
821.99903903299446	3.059900e+02
823.001566279714211	3.059921e+02
824.000924564271259	3.059943e+02
825.000221582081508	3.059964e+02
825.999382328954994	3.059986e+02
827.001587692406019	3.060007e+02
828.000627895948355	3.060028e+02
828.999551449502519	3.060049e+02
830.001467451544841	3.060070e+02
831.00021531107916	3.060091e+02
831.998895971035608	3.060112e+02
833.00053533753794	3.060133e+02
833.998955071971295	3.060154e+02
835.00047699596098	3.060175e+02
835.998715522652674	3.060195e+02
836.999930671296283	3.060216e+02
838.001123477570104	3.060236e+02
838.999081881752318	3.060257e+02
839.999970080385197	3.060277e+02
841.000794857779169	3.060297e+02
842.001560905365864	3.060318e+02
842.999001408825166	3.060338e+02
843.999452529910513	3.060358e+02
844.999872326116702	3.060377e+02
846.00012386627759	3.060397e+02
847.000222763155534	3.060417e+02
848.000292433634058	3.060437e+02
849.000242785677756	3.060456e+02
850.00002896157423	3.060476e+02
850.999761643604757	3.060495e+02
851.999393702273892	3.060514e+02
852.998859638489989	3.060533e+02
854.001360649677281	3.060553e+02
855.000657095778593	3.060572e+02
855.999813643532775	3.060590e+02
856.998873063266615	3.060609e+02
858.000986364875075	3.060628e+02
858.999868720381755	3.060646e+02
859.998649532608965	3.060665e+02
861.000471721768236	3.060683e+02
861.999066316743551	3.060701e+02
863.00067494956329	3.060719e+02
863.999087793853846	3.060737e+02
865.000544472149613	3.060755e+02
865.998803714020937	3.060773e+02
867.000122603809928	3.060791e+02
868.001384262134707	3.060808e+02
868.999472388112508	3.060826e+02
870.000643261292907	3.060843e+02
870.998667684868224	3.060860e+02
871.999782446837344	3.060877e+02
873.000874958462532	3.060894e+02
873.998827776105145	3.060911e+02
874.999872922336863	3.060927e+02
876.000892789683121	3.060944e+02
876.998770256755165	3.060960e+02
877.999739486612611	3.060977e+02
879.000683825170086	3.060993e+02
880.001608363271998	3.061009e+02
880.999396520939513	3.061025e+02
882.000287412664647	3.061041e+02
883.001169270520791	3.061057e+02
883.998928084996123	3.061072e+02
884.999805708670237	3.061087e+02
886.000690875077112	3.061103e+02
887.001587333905491	3.061118e+02
887.999378046442303	3.061133e+02
889.000298849841215	3.061148e+02
890.001227169192589	3.061163e+02
890.999038491454712	3.061177e+02
891.999963323031352	3.061192e+02
893.000877356106457	3.061206e+02
893.998656425749232	3.061221e+02
894.999532193965592	3.061235e+02
896.00038300383892	3.061249e+02
897.001206450445807	3.061263e+02
897.998883302916397	3.061277e+02
898.999649348573598	3.061291e+02
900.000386891797802	3.061305e+02
901.001097298132891	3.061318e+02
901.998664901937559	3.061332e+02
902.999325858317889	3.061345e+02
903.999963408500321	3.061359e+02
905.00057879198755	3.061372e+02
906.001172663939997	3.061385e+02
906.998627661731803	3.061398e+02
907.999177637872663	3.061411e+02
908.999704328773987	3.061424e+02
910.000205979892371	3.061437e+02
911.000680661403294	3.061450e+02
912.001126076367655	3.061463e+02
913.0015389069398	3.061475e+02
913.998800052091042	3.061488e+02