# Region type : patch node2U_4_Outlet_0
#   Faces  : 148
#   Area   : 1.734596e-02
#        Time	areaAverage(T)
     0.999427	3.001500e+02
      2.00049	3.001500e+02
      3.00031	3.001495e+02
      3.99974	3.001494e+02
     4.999837	3.001498e+02
      6.00101	3.001499e+02
     7.000448	3.001500e+02
     8.000372	3.001500e+02
     9.000012	3.001500e+02
   10.0011397	3.001499e+02
   11.0005124	3.001813e+02
   12.0006243	3.002126e+02
    13.001107	3.002438e+02
   13.9997402	3.002748e+02
  14.99964955	3.003058e+02
  15.99955708	3.003366e+02
  17.00134405	3.003673e+02
  18.00000337	3.003978e+02
  19.00006167	3.004282e+02
 20.001505108	3.004586e+02
 20.999254464	3.004887e+02
  22.00150266	3.005189e+02
 23.001714829	3.005489e+02
 23.999634984	3.005787e+02
25.00095516804	3.006084e+02
25.9996836352	3.006380e+02
26.99932842931	3.006676e+02
28.00029166142	3.006970e+02
28.99937441246	3.007263e+02
30.002134441893	3.007556e+02
31.002014765417	3.007847e+02
32.001552166551	3.008136e+02
33.000560257147	3.008424e+02
33.999249928093	3.008710e+02
35.00108530523362	3.008997e+02
36.00057592118466	3.009282e+02
37.00120630448001	3.009569e+02
38.00022932106895	3.009856e+02
39.00052258115672	3.010144e+02
40.0012943804983152	3.010433e+02
41.0019879837090926	3.010722e+02
41.9992708912271695	3.011010e+02
43.0021545135227328	3.011300e+02
44.0019391598090266	3.011588e+02
44.9992995861729526	3.011874e+02
46.0009844670853099	3.012160e+02
47.0014489491798813	3.012445e+02
48.0008801364990703	3.012728e+02
48.9995304912996801	3.013010e+02
50.0001794237682375	3.013291e+02
50.9993551299025256	3.013571e+02
51.9998205148969248	3.013849e+02
53.0015311001695864	3.014127e+02
54.0013696283965601	3.014403e+02
54.9993238877661597	3.014678e+02
56.0015339065886479	3.014953e+02
57.0018205760141825	3.015227e+02
58.000096433294182	3.015500e+02
58.9991359299691496	3.015773e+02
60.0016627635771727	3.016046e+02
61.0010778941215932	3.016319e+02
62.0000130700834902	3.016591e+02
63.0010986270090001	3.016863e+02
64.0009690790207202	3.017135e+02
64.9994918949116851	3.017407e+02
65.9998560646141783	3.017678e+02
66.9992477683962306	3.017950e+02
68.0009249354785794	3.018221e+02
69.0019475640447695	3.018492e+02
69.9993513960609874	3.018762e+02
70.9993591323269015	3.019032e+02
72.0020465187059102	3.019303e+02
73.0013581031466714	3.019571e+02
74.000423255190384	3.019840e+02
74.9993458644687365	3.020107e+02
76.0013508435945511	3.020375e+02
77.0005510755528491	3.020642e+02
78.0000113736252843	3.020909e+02
78.9992549610128236	3.021174e+02
80.0009720943383229	3.021440e+02
81.0020589541296232	3.021706e+02
81.9992454193614009	3.021970e+02
83.0014611672898184	3.022235e+02
83.9993628440124525	3.022498e+02
85.0020431376517678	3.022762e+02
86.000333987758637	3.023024e+02
87.0003695380874404	3.023286e+02
88.0020658759812022	3.023548e+02
88.9993795452335519	3.023809e+02
90.0015696379174557	3.024070e+02
90.9997903684166971	3.024330e+02
92.0003898830139377	3.024589e+02
93.0006194266289867	3.024848e+02
94.0007057145538596	3.025107e+02
95.0007997335581251	3.025365e+02
96.0009686444809773	3.025623e+02
97.0012373806239623	3.025880e+02
98.0016053172324462	3.026137e+02
99.0020344570527584	3.026394e+02
99.9994552294174497	3.026649e+02
100.999851234731452	3.026905e+02
102.000136850138333	3.027160e+02
103.000241500016131	3.027415e+02
104.000073061910427	3.027669e+02
104.999552930719901	3.027922e+02
106.001633206025147	3.028176e+02
107.000192996165325	3.028428e+02
108.001260471577879	3.028681e+02
109.001819915586253	3.028933e+02
110.001932009313407	3.029184e+02
111.001635624775176	3.029435e+02
112.000980310532839	3.029685e+02
113.000018915714335	3.029934e+02
114.001807672044521	3.030184e+02
115.000361508444968	3.030433e+02
116.001781982353393	3.030681e+02
117.000048097326257	3.030929e+02
118.00122264940498	3.031176e+02
118.999382617868164	3.031423e+02
120.000616562993542	3.031670e+02
121.002007225989203	3.031916e+02
122.000661640430124	3.032162e+02
122.999734831133267	3.032407e+02
123.99952262735836	3.032652e+02
125.000333848736219	3.032896e+02
125.999642959708595	3.033140e+02
127.000956414914896	3.033384e+02
128.001293686371213	3.033627e+02
129.000700621259568	3.033870e+02
130.002135701572797	3.034112e+02
130.999533849213833	3.034353e+02
131.999244240588723	3.034595e+02
133.001101245812436	3.034836e+02
134.0020971077968	3.035076e+02
135.002075643628388	3.035316e+02
136.000848975566782	3.035555e+02
137.001309026256649	3.035794e+02
138.000254544982795	3.036032e+02
139.000649575250975	3.036270e+02
139.999224934568531	3.036507e+02
141.002036637829093	3.036745e+02
141.999654446908238	3.036980e+02
143.001271960468813	3.037216e+02
144.000548532269903	3.037451e+02
145.00044839448563	3.037685e+02
146.000849050599697	3.037918e+02
147.001677167223932	3.038150e+02
147.99975047252525	3.038380e+02
149.001369451029944	3.038610e+02
150.000282434108982	3.038838e+02
150.999551328031998	3.039065e+02
151.999184896249147	3.039290e+02
152.999208185270845	3.039515e+02
153.999585696359787	3.039738e+02
155.00029833082661	3.039960e+02
156.001343237128225	3.040181e+02
156.999457705577299	3.040399e+02
158.000686168546764	3.040618e+02
159.001776087131674	3.040834e+02
159.999561059721657	3.041048e+02
161.000550527382018	3.041262e+02
162.001972559951867	3.041474e+02
163.000888609676053	3.041684e+02
164.000316687785954	3.041893e+02
165.000096140130211	3.042101e+02
166.000088612179667	3.042308e+02
167.000061340522421	3.042515e+02
167.999782828424799	3.042720e+02
168.999172341489157	3.042925e+02
170.001230534148533	3.043128e+02
170.999544804163264	3.043330e+02
172.00045496321485	3.043530e+02
173.000757901779707	3.043729e+02
174.000444045117518	3.043926e+02
174.999760596408947	3.044122e+02
176.002157779350711	3.044317e+02
177.001661582702695	3.044511e+02
178.001628294344187	3.044704e+02
178.999162606507298	3.044895e+02
180.000503473761029	3.045085e+02
180.999207866690625	3.045275e+02
182.001208593017452	3.045464e+02
183.000047488950003	3.045651e+02
184.001808139786192	3.045838e+02
184.999937399233318	3.046024e+02
186.000595667805044	3.046209e+02
187.000530755139152	3.046393e+02
187.999425330199387	3.046577e+02
189.000062339945401	3.046760e+02
189.999357851741564	3.046943e+02
191.001057008974414	3.047125e+02
191.999795576908383	3.047308e+02
193.002046035564831	3.047491e+02
194.001168212745995	3.047673e+02
195.000232847940111	3.047855e+02
195.99953641592225	3.048037e+02
196.999439237675062	3.048219e+02
197.999269378639354	3.048400e+02
199.000650340503455	3.048583e+02
200.000842022656059	3.048765e+02
201.00119110761409	3.048947e+02
202.001134602567248	3.049130e+02
202.999417775043128	3.049312e+02
204.000827370954454	3.049495e+02
205.000559713225243	3.049678e+02
206.000502514791634	3.049861e+02
207.00011763453864	3.050044e+02
207.999195525308778	3.050225e+02
209.000671541921633	3.050407e+02
210.001817201873507	3.050588e+02
211.0002458890323	3.050767e+02
211.999364130299796	3.050946e+02
213.001839980993253	3.051124e+02
214.000870215088923	3.051301e+02
215.002023773923156	3.051478e+02
216.001504856122665	3.051652e+02
217.002189670235424	3.051826e+02
218.001143521538211	3.051998e+02
219.001212277794565	3.052169e+02
219.999323567592427	3.052338e+02
221.002031393932299	3.052505e+02
222.000217558785977	3.052671e+02
222.99997324448853	3.052835e+02
224.001867206834618	3.052998e+02
225.000375206176443	3.053160e+02
226.00200082573221	3.053320e+02
227.000972114187221	3.053479e+02
228.000539892764351	3.053638e+02
229.000893584517286	3.053796e+02
229.999159920018428	3.053953e+02
231.001639840260879	3.054111e+02
231.999283063040082	3.054269e+02
233.00130211069677	3.054427e+02
234.001698960598503	3.054585e+02
235.000597990278322	3.054742e+02
236.001193587127887	3.054901e+02
237.000556169397072	3.055059e+02
238.001863471893813	3.055217e+02
239.002111919382003	3.055375e+02
240.001418570662111	3.055533e+02
240.999928434963607	3.055690e+02
242.000753346005581	3.055848e+02
243.000790839895984	3.056005e+02
244.000120610590187	3.056161e+02
245.0016559814066	3.056317e+02
246.000482859716641	3.056472e+02
246.99990715638009	3.056626e+02
247.999403010268622	3.056780e+02
249.001563930534189	3.056933e+02
249.99991638000995	3.057085e+02
251.00124377511591	3.057237e+02
252.000612908785769	3.057388e+02
253.001586776589619	3.057538e+02
254.001036030762123	3.057688e+02
254.999975551401036	3.057836e+02
256.000901604547437	3.057984e+02
257.000429744924418	3.058131e+02
258.001671223638084	3.058277e+02
259.001589548794925	3.058421e+02
260.000266655218695	3.058564e+02
261.000969535167712	3.058705e+02
262.000494430921947	3.058846e+02
263.002051357954429	3.058985e+02
263.999663054152222	3.059123e+02
264.999816340629877	3.059262e+02
265.999646482167861	3.059399e+02
266.999122460407477	3.059536e+02
268.001488989346399	3.059674e+02
269.000493605175279	3.059810e+02
270.001990224823089	3.059946e+02
270.999337872084311	3.060080e+02
272.001339823267472	3.060215e+02
273.001474013986467	3.060348e+02
273.999720630411105	3.060480e+02
274.999301622459257	3.060611e+02
276.00038858779908	3.060741e+02
277.000037429810845	3.060870e+02
277.99913815271151	3.060998e+02
279.001896234752223	3.061126e+02
279.999861762659407	3.061252e+02
280.999488359605721	3.061377e+02
282.000390167863145	3.061502e+02
283.001987050804189	3.061627e+02
284.000403045574728	3.061750e+02
285.001459538132849	3.061874e+02
286.001911629869539	3.061997e+02
287.001710184502201	3.062119e+02
288.000877315806576	3.062241e+02
288.999535921458005	3.062363e+02
290.000849147452925	3.062485e+02
291.001784583192489	3.062606e+02
291.999470265078116	3.062727e+02
293.000350726228248	3.062847e+02
294.001453998386921	3.062967e+02
294.99966250983897	3.063086e+02
296.001136649546311	3.063204e+02
296.999687551871489	3.063322e+02
298.001247068601629	3.063439e+02
298.999548585051969	3.063555e+02
300.000750059626967	3.063671e+02
301.001680673730334	3.063786e+02
301.999163971664927	3.063900e+02
302.999367282612582	3.064014e+02
303.999165754537898	3.064127e+02
305.001521887055901	3.064240e+02
306.000375119051853	3.064353e+02
307.001951876416115	3.064465e+02
308.000142042528466	3.064577e+02
309.001212895246681	3.064688e+02
309.999178614301854	3.064799e+02
311.000144539620237	3.064909e+02
312.001033491892031	3.065020e+02
313.001930242594824	3.065130e+02
313.999795573081769	3.065239e+02
315.000737111554429	3.065349e+02
316.001795102997278	3.065458e+02
317.00001860641413	3.065567e+02
318.001569055336915	3.065676e+02
319.000370431756608	3.065784e+02
319.999538897728996	3.065892e+02
321.002128177021007	3.066000e+02
322.001976849831294	3.066108e+02
323.002194787671499	3.066216e+02
323.999791101614449	3.066323e+02
325.000926405668565	3.066431e+02
325.999464392117318	3.066538e+02
327.001583740419449	3.066646e+02
328.001120124628414	3.066753e+02
329.001056924662748	3.066860e+02
330.001316807607054	3.066967e+02
331.001922953082271	3.067075e+02
331.999820607277798	3.067182e+02
333.001108668105701	3.067289e+02
333.999592450065279	3.067397e+02
335.001430012474145	3.067504e+02
336.000445902539866	3.067612e+02
336.999658818477883	3.067719e+02
338.002156064041969	3.067827e+02
339.001851563835544	3.067935e+02
340.001899743984723	3.068042e+02
340.999156465230499	3.068149e+02
341.999853923984119	3.068257e+02
343.000704997008711	3.068364e+02
344.001376858938784	3.068471e+02
345.00203887706607	3.068578e+02
345.999955215504826	3.068684e+02
347.000522663162087	3.068790e+02
348.000200029152836	3.068896e+02
349.000522755694988	3.069002e+02
350.001253613143035	3.069107e+02
351.000624273237918	3.069212e+02
351.999435802063715	3.069317e+02
353.002196744729815	3.069421e+02
354.001070048515999	3.069525e+02
355.001641036799754	3.069629e+02
355.999599629701663	3.069733e+02
357.000540487227624	3.069836e+02
358.000075444862205	3.069938e+02
358.999302800154226	3.070041e+02
360.001709987803054	3.070143e+02
361.000074298292702	3.070244e+02
362.000859290272558	3.070345e+02
363.001622746756937	3.070446e+02
364.001832563596452	3.070546e+02
365.001535463384243	3.070646e+02
366.00131467837474	3.070745e+02
367.00110538924082	3.070844e+02
368.000736030787152	3.070943e+02
369.000275218586978	3.071041e+02
369.999824276884169	3.071139e+02
370.999426774194205	3.071237e+02
372.002080612393968	3.071334e+02
373.001588932385062	3.071432e+02
374.001081446833666	3.071529e+02
375.000626116571937	3.071625e+02
376.000218547876443	3.071722e+02
376.999910591726973	3.071818e+02
377.999797780145002	3.071914e+02
378.999906813743962	3.072010e+02
380.000244808336674	3.072106e+02
381.000865619572778	3.072201e+02
382.001806304484546	3.072297e+02
382.999946272056377	3.072392e+02
384.001355606036498	3.072487e+02
384.99985631053687	3.072581e+02
386.0015402976166	3.072676e+02
387.000162701931743	3.072770e+02
388.001801501548812	3.072865e+02
389.000300444038373	3.072958e+02
390.001742707954349	3.073052e+02
390.99990443699852	3.073146e+02
392.000936197689441	3.073239e+02
393.00177492471073	3.073332e+02
393.999328852185783	3.073425e+02
394.999780108992752	3.073517e+02
396.000134804692266	3.073610e+02
397.00042004616688	3.073702e+02
398.000667031307955	3.073794e+02
399.000931769728538	3.073886e+02
400.001227470614424	3.073978e+02
401.001544797640236	3.074069e+02
402.001902596511854	3.074161e+02
402.999246021227464	3.074252e+02
403.999704245461601	3.074343e+02
405.000213976000339	3.074433e+02
406.000785726507388	3.074524e+02
407.001408508531085	3.074614e+02
408.002071314539194	3.074705e+02
408.999708595374841	3.074795e+02
410.000459919667492	3.074884e+02
411.001252828558734	3.074974e+02
412.002098628850092	3.075064e+02
412.999937502784405	3.075153e+02
414.000908309496879	3.075242e+02
415.001942485681127	3.075331e+02
415.999966713914432	3.075419e+02
417.001110452812043	3.075508e+02
417.999223947442431	3.075596e+02
419.000449839982025	3.075684e+02
420.001714127287812	3.075772e+02
420.999943618431587	3.075860e+02
422.001290078822194	3.075948e+02
422.999615985253001	3.076035e+02
424.001060314288623	3.076123e+02
424.999478222599919	3.076210e+02
426.001017745420938	3.076297e+02
426.999530720086625	3.076384e+02
428.001152874177365	3.076471e+02
428.999734515582077	3.076557e+02
430.001408625449528	3.076643e+02
431.000010340225799	3.076730e+02
432.001667839199797	3.076816e+02
433.000221815074497	3.076901e+02
434.001804251808949	3.076987e+02
435.000261415516377	3.077072e+02
436.001731095603191	3.077157e+02
437.000062707295285	3.077242e+02
438.001391866866186	3.077327e+02
438.999570770102707	3.077411e+02
440.000737846380048	3.077496e+02
441.00182111589163	3.077580e+02
441.999771361342766	3.077663e+02
443.000763413799177	3.077747e+02
444.001696459830953	3.077831e+02
444.999500435886944	3.077914e+02
446.00032752414711	3.077997e+02
447.001117645498596	3.078080e+02
448.001883226712721	3.078162e+02
448.999571098762033	3.078245e+02
450.00033578121878	3.078327e+02
451.00111711588346	3.078409e+02
452.001919501336943	3.078491e+02
452.999672442533097	3.078572e+02
454.000509144188925	3.078654e+02
455.001349657630726	3.078735e+02
456.002184940512961	3.078816e+02
456.999938224470498	3.078897e+02
458.000744652436538	3.078977e+02
459.001531729330225	3.079058e+02
459.999229727689283	3.079138e+02
460.999980922561065	3.079218e+02
462.000721221335311	3.079297e+02
463.001457879234579	3.079377e+02
464.002198438059679	3.079456e+02
464.999883907378376	3.079535e+02
466.000675712563577	3.079614e+02
467.001515884230287	3.079693e+02
467.999330505639648	3.079772e+02
469.000266807748972	3.079850e+02
470.001261089356149	3.079929e+02
470.999245163364833	3.080007e+02
472.000360361590424	3.080085e+02
473.001534471459308	3.080163e+02
473.99969086704948	3.080240e+02
475.000964073942441	3.080318e+02
475.999201404603866	3.080395e+02
477.000533716233122	3.080472e+02
478.001873839315238	3.080549e+02
479.000134933457161	3.080626e+02
480.001446950719014	3.080702e+02
480.999654544415421	3.080778e+02
482.00089220139256	3.080855e+02
483.002083364948987	3.080931e+02
484.000154946090731	3.081006e+02
485.001249816296991	3.081082e+02
485.999230737996697	3.081157e+02
487.00024615858581	3.081232e+02
488.001234027089424	3.081307e+02
488.999135972829379	3.081381e+02
490.000107037485407	3.081456e+02
491.001090819159572	3.081531e+02
492.002101665974578	3.081605e+02
493.00008301340813	3.081679e+02
494.001188349803726	3.081753e+02
494.999284798957547	3.081827e+02
496.000521798226259	3.081901e+02
497.001832923759764	3.081974e+02
498.000146640750472	3.082047e+02
499.001605196865512	3.082121e+02
500.000061963698101	3.082194e+02
501.001655800322453	3.082267e+02
502.000234992100616	3.082340e+02
503.001937609868378	3.082412e+02
504.000610741995047	3.082485e+02
504.999319615887543	3.082557e+02
506.001131858100678	3.082629e+02
506.999897443339478	3.082701e+02
508.001760645684897	3.082773e+02
509.00057494393468	3.082845e+02
509.999413898640967	3.082916e+02
511.001351703648083	3.082988e+02
512.000243591651156	3.083059e+02
512.999166595937822	3.083130e+02
514.001198888276008	3.083201e+02
515.000197471901288	3.083272e+02
515.999240191230342	3.083342e+02
517.001404900109492	3.083413e+02
518.000546014341694	3.083483e+02
518.9997392945819	3.083553e+02
520.002060063838258	3.083624e+02
521.001358525883006	3.083693e+02
522.000709177407316	3.083763e+02
523.000105090532884	3.083833e+02
523.999529934207544	3.083902e+02
525.002084781041731	3.083971e+02
526.001622665853461	3.084041e+02
527.001171985616338	3.084109e+02
528.000721685101212	3.084178e+02
529.000262130536157	3.084247e+02
529.999796097172407	3.084315e+02
530.999318975361916	3.084383e+02
532.001899480313568	3.084451e+02
533.001399512774583	3.084519e+02
534.000900020699419	3.084587e+02
535.000404316961408	3.084654e+02
535.999921060856764	3.084722e+02
536.999458418444192	3.084789e+02
538.002103412542056	3.084856e+02
539.001714787084325	3.084923e+02
540.001366371732502	3.084990e+02
541.001061457090373	3.085056e+02
542.000809750296298	3.085123e+02
543.000609536481306	3.085189e+02
544.000457062784562	3.085255e+02
545.000356160035494	3.085321e+02
546.000305324828219	3.085387e+02
547.000296519477502	3.085453e+02
548.00032856348605	3.085518e+02
549.00039992437064	3.085584e+02
550.00050195823269	3.085649e+02
551.000628867013802	3.085714e+02
552.000778619984771	3.085779e+02
553.000945071355659	3.085843e+02
554.001124319738892	3.085908e+02
555.001316586008329	3.085972e+02
556.001519320644888	3.086036e+02
557.001731672484084	3.086100e+02
558.001954675918114	3.086164e+02
559.002190567552361	3.086228e+02
559.999362884992479	3.086291e+02
560.999630826612474	3.086355e+02
561.999920830554856	3.086418e+02
563.000235633839111	3.086481e+02
564.000576550278424	3.086544e+02
565.000944078801922	3.086606e+02
566.001337432372793	3.086669e+02
567.001755222184784	3.086731e+02
568.002196495543558	3.086793e+02
568.999580920182666	3.086855e+02
570.000062861669335	3.086917e+02
571.000563368208532	3.086979e+02
572.001080476734842	3.087040e+02
573.001612390215314	3.087102e+02
574.002157901395321	3.087163e+02
574.999637739490481	3.087224e+02
576.000208103055229	3.087284e+02
577.000790376419445	3.087345e+02
578.00138554894454	3.087406e+02
579.001995962862566	3.087466e+02
579.999544495687815	3.087526e+02
581.000190636220964	3.087586e+02
582.000857445269162	3.087646e+02
583.001547127940512	3.087706e+02
583.999183521675604	3.087765e+02
584.999926948589632	3.087824e+02
586.000700489218843	3.087884e+02
587.001506598911533	3.087943e+02
587.99926799382547	3.088002e+02
589.000145409217112	3.088060e+02
590.001061787678282	3.088119e+02
591.002019298079972	3.088178e+02
591.999939170705602	3.088236e+02
593.000983032244562	3.088294e+02
594.002072942547557	3.088352e+02
595.000129737546672	3.088410e+02
596.001316151765764	3.088468e+02
596.999472665188705	3.088525e+02
598.000761925122447	3.088583e+02
599.002104637616185	3.088640e+02
600.000419838153448	3.088697e+02
601.001870748756801	3.088754e+02
602.000295198039908	3.088811e+02
603.001856482751009	3.088868e+02
604.000391285519527	3.088924e+02
605.002064012870051	3.088981e+02
606.000709777146653	3.089037e+02
606.999409940374107	3.089093e+02
608.001245875481345	3.089149e+02
609.000049676068443	3.089205e+02
610.001977780122729	3.089261e+02
611.000845954300644	3.089316e+02
611.99973879132358	3.089372e+02
613.0017381606973	3.089427e+02
614.000676823116464	3.089482e+02
614.999639012873558	3.089537e+02
616.001711923290941	3.089592e+02
617.000734056203328	3.089647e+02
617.999790448542399	3.089701e+02
619.001965576661064	3.089756e+02
620.001094966328083	3.089810e+02
621.000264110250328	3.089865e+02
621.999473763055789	3.089919e+02
623.001807770423625	3.089973e+02
624.001097977880477	3.090027e+02
625.000428471307941	3.090081e+02
625.99979888765597	3.090134e+02
626.999206816023047	3.090188e+02
628.001734472853627	3.090242e+02
629.001210015546008	3.090295e+02
630.000717516821396	3.090348e+02
631.000256078500001	3.090401e+02
631.999825123270284	3.090454e+02
632.999426658020411	3.090507e+02
634.00214914754838	3.090560e+02
635.00182383606159	3.090612e+02
636.00153826904284	3.090665e+02
637.001295668469538	3.090717e+02
638.001098441052591	3.090769e+02
639.000949078242797	3.090821e+02
640.000852172062196	3.090873e+02
641.000811977679632	3.090925e+02
642.000826046606221	3.090976e+02
643.00088421093858	3.091028e+02
644.000987198982557	3.091079e+02
645.001135073950991	3.091130e+02
646.001327198662466	3.091181e+02
647.001564001378711	3.091232e+02
648.001846248315132	3.091283e+02
649.002175559720968	3.091334e+02
649.999466234982947	3.091384e+02
650.999894350096497	3.091434e+02
652.000373217148535	3.091484e+02
653.000902076524198	3.091534e+02
654.00147562295092	3.091584e+02
655.002088305455345	3.091634e+02
655.999648575967171	3.091683e+02
657.000332758057425	3.091733e+02
658.0010501714155	3.091782e+02
659.001800652544148	3.091831e+02
659.99949457924231	3.091880e+02
661.00031023942654	3.091928e+02
662.001159454296953	3.091977e+02
663.002044136727022	3.092025e+02
663.999875970023027	3.092074e+02
665.000834738074445	3.092122e+02
666.001832272214756	3.092170e+02
666.999780480688059	3.092218e+02
668.00086067640018	3.092265e+02
669.0019849067927	3.092313e+02
670.000066609870373	3.092360e+02
671.001289291633157	3.092407e+02
671.999475757621894	3.092454e+02
673.000807624938147	3.092501e+02
674.00218933117651	3.092548e+02
675.000530347012273	3.092595e+02
676.00201286504398	3.092641e+02
677.000455554626456	3.092688e+02
678.00203940307631	3.092734e+02
679.000578665894523	3.092780e+02
679.999162369956139	3.092826e+02
681.000880745148152	3.092871e+02
681.99954849522635	3.092917e+02
683.001348837939759	3.092962e+02
684.000098695633596	3.093008e+02
685.001982198614996	3.093053e+02
686.000816954055722	3.093098e+02
686.999697858463037	3.093142e+02
688.00171817598391	3.093187e+02
689.000696449352063	3.093232e+02
689.999727806012288	3.093276e+02
691.001907207350882	3.093320e+02
692.001049376099786	3.093364e+02
693.000249775258794	3.093408e+02
693.999509619646233	3.093452e+02
695.001924732240695	3.093496e+02
696.001309593331143	3.093539e+02
697.000760008039492	3.093583e+02
698.000278654198837	3.093626e+02
698.999867765049999	3.093669e+02
699.999528647373381	3.093712e+02
700.999261851223423	3.093755e+02
702.002166662328364	3.093798e+02
703.002048461605796	3.093841e+02
704.002016020040287	3.093883e+02
705.002067926577752	3.093925e+02
706.00220676286699	3.093968e+02
706.999339558774523	3.094010e+02
707.999660490636643	3.094052e+02
709.000074117678878	3.094094e+02
710.000580381524742	3.094136e+02
711.001179537292728	3.094177e+02
712.001873981621088	3.094219e+02
712.999567203269407	3.094260e+02
714.00045794582627	3.094302e+02
715.001450105897447	3.094343e+02
715.999448579511522	3.094384e+02
717.000655854154957	3.094425e+02
718.0019742138428	3.094466e+02
719.000305392174141	3.094506e+02
720.001852983587924	3.094547e+02
721.000416218402506	3.094588e+02
722.002200570993409	3.094628e+02
723.001008981241284	3.094669e+02
723.999950655311068	3.094709e+02
725.002133639869839	3.094749e+02
726.001353102790858	3.094789e+02
727.00071608947178	3.094829e+02
728.00022038558518	3.094869e+02
728.999871265919523	3.094909e+02
729.999674178006103	3.094948e+02
730.999624470423214	3.094988e+02
731.999723814716162	3.095027e+02
732.999981920546702	3.095067e+02
734.000399350975727	3.095106e+02
735.000982023089364	3.095145e+02
736.001751885511112	3.095185e+02
736.999619236443891	3.095224e+02
738.000802725583412	3.095263e+02
739.002187912777913	3.095302e+02
740.000664238488525	3.095340e+02
740.999335135875413	3.095379e+02
742.001306272409806	3.095418e+02
743.00035018367214	3.095456e+02
743.99957864434225	3.095495e+02
745.00209378730176	3.095533e+02
746.001656578055645	3.095571e+02
747.001380774958648	3.095610e+02
748.00126859852594	3.095648e+02
749.001303812227547	3.095686e+02
750.001478226125414	3.095724e+02
751.001804049645898	3.095762e+02
751.999170492685494	3.095800e+02
752.999809978551639	3.095838e+02
754.000617256708324	3.095875e+02
755.00160456231481	3.095913e+02
755.9996414509244	3.095951e+02
757.000951254417714	3.095988e+02
757.999294888358463	3.096025e+02
759.000917716026038	3.096063e+02
759.999566380384408	3.096100e+02
761.001471295675515	3.096137e+02
762.000398866962996	3.096174e+02
762.999480786557797	3.096211e+02
764.001828470308624	3.096249e+02
765.001191457607433	3.096285e+02
766.000702680357449	3.096322e+02
767.000354804227186	3.096359e+02
768.000129205270241	3.096395e+02
769.000031120643371	3.096432e+02
770.000070989382039	3.096468e+02
771.000232985301295	3.096505e+02
772.000507517313849	3.096541e+02
773.00091097560221	3.096579e+02
774.001447959901384	3.096615e+02
774.998969051475342	3.096651e+02
775.999733179126224	3.096687e+02
777.000628535097917	3.096723e+02
777.998511779941055	3.096758e+02
778.999625465291729	3.096794e+02
780.000852992181535	3.096830e+02
780.999067502251023	3.096865e+02
782.000501651750483	3.096900e+02
782.998890402950906	3.096935e+02
784.000510709332616	3.096971e+02
784.999095951145591	3.097006e+02
786.000885146906739	3.097041e+02
786.999626701129273	3.097075e+02
788.001601758150173	3.097110e+02
789.000530123687213	3.097144e+02
789.999530848230279	3.097179e+02
790.99862715721315	3.097213e+02
792.000951261299747	3.097247e+02
793.000211673519857	3.097281e+02
793.999551064803086	3.097315e+02
794.998993047389376	3.097349e+02
795.998539242270454	3.097383e+02
797.00121385970408	3.097416e+02
798.00083212691186	3.097450e+02
799.000522314330169	3.097483e+02
800.000250605756605	3.097516e+02
801.000017169912667	3.097549e+02
801.999842073571358	3.097582e+02
802.999706484609419	3.097614e+02
803.999582733291618	3.097647e+02
804.999482047756146	3.097679e+02
805.999415658781686	3.097711e+02
806.999351759117303	3.097743e+02
807.999274949151413	3.097775e+02
808.999208724711366	3.097806e+02
809.99914808867095	3.097838e+02
810.999056193766251	3.097869e+02
811.998932488494233	3.097900e+02
812.998803996338438	3.097931e+02
813.998654002002354	3.097962e+02
815.001579920991389	3.097993e+02
816.00133257523828	3.098023e+02
817.001074908216992	3.098053e+02
818.000771926080461	3.098083e+02
819.000393426636151	3.098113e+02
819.999981202322829	3.098143e+02
820.999550655257735	3.098172e+02
821.99903903299446	3.098202e+02
823.001566279714211	3.098231e+02
824.000924564271259	3.098260e+02
825.000221582081508	3.098289e+02
825.999382328954994	3.098317e+02
827.001587692406019	3.098346e+02
828.000627895948355	3.098374e+02
828.999551449502519	3.098402e+02
830.001467451544841	3.098430e+02
831.00021531107916	3.098458e+02
831.998895971035608	3.098485e+02
833.00053533753794	3.098513e+02
833.998955071971295	3.098540e+02
835.00047699596098	3.098567e+02
835.998715522652674	3.098594e+02
836.999930671296283	3.098621e+02
838.001123477570104	3.098648e+02
838.999081881752318	3.098674e+02
839.999970080385197	3.098701e+02
841.000794857779169	3.098727e+02
842.001560905365864	3.098753e+02
842.999001408825166	3.098779e+02
843.999452529910513	3.098804e+02
844.999872326116702	3.098830e+02
846.00012386627759	3.098855e+02
847.000222763155534	3.098881e+02
848.000292433634058	3.098906e+02
849.000242785677756	3.098931e+02
850.00002896157423	3.098956e+02
850.999761643604757	3.098980e+02
851.999393702273892	3.099005e+02
852.998859638489989	3.099029e+02
854.001360649677281	3.099053e+02
855.000657095778593	3.099078e+02
855.999813643532775	3.099102e+02
856.998873063266615	3.099125e+02
858.000986364875075	3.099149e+02
858.999868720381755	3.099173e+02
859.998649532608965	3.099196e+02
861.000471721768236	3.099219e+02
861.999066316743551	3.099242e+02
863.00067494956329	3.099265e+02
863.999087793853846	3.099288e+02
865.000544472149613	3.099311e+02
865.998803714020937	3.099334e+02
867.000122603809928	3.099356e+02
868.001384262134707	3.099379e+02
868.999472388112508	3.099401e+02
870.000643261292907	3.099423e+02
870.998667684868224	3.099445e+02
871.999782446837344	3.099467e+02
873.000874958462532	3.099489e+02
873.998827776105145	3.099510e+02
874.999872922336863	3.099532e+02
876.000892789683121	3.099553e+02
876.998770256755165	3.099575e+02
877.999739486612611	3.099596e+02
879.000683825170086	3.099617e+02
880.001608363271998	3.099638e+02
880.999396520939513	3.099659e+02
882.000287412664647	3.099680e+02
883.001169270520791	3.099700e+02
883.998928084996123	3.099721e+02
884.999805708670237	3.099741e+02
886.000690875077112	3.099762e+02
887.001587333905491	3.099782e+02
887.999378046442303	3.099802e+02
889.000298849841215	3.099822e+02
890.001227169192589	3.099842e+02
890.999038491454712	3.099861e+02
891.999963323031352	3.099881e+02
893.000877356106457	3.099900e+02
893.998656425749232	3.099920e+02
894.999532193965592	3.099939e+02
896.00038300383892	3.099958e+02
897.001206450445807	3.099977e+02
897.998883302916397	3.099996e+02
898.999649348573598	3.100015e+02
900.000386891797802	3.100034e+02
901.001097298132891	3.100052e+02
901.998664901937559	3.100071e+02
902.999325858317889	3.100089e+02
903.999963408500321	3.100107e+02
905.00057879198755	3.100125e+02
906.001172663939997	3.100143e+02
906.998627661731803	3.100161e+02
907.999177637872663	3.100179e+02
908.999704328773987	3.100196e+02
910.000205979892371	3.100214e+02
911.000680661403294	3.100231e+02
912.001126076367655	3.100248e+02
913.0015389069398	3.100266e+02
913.998800052091042	3.100283e+02