# Region type : patch node4U_0_Outlet_0
#   Faces  : 252
#   Area   : 3.465319e-02
#        Time	areaAverage(T)
     0.999427	3.001500e+02
      2.00049	3.001500e+02
      3.00031	3.001500e+02
      3.99974	3.001500e+02
     4.999837	3.001500e+02
      6.00101	3.001500e+02
     7.000448	3.001500e+02
     8.000372	3.001500e+02
     9.000012	3.001500e+02
   10.0011397	3.001500e+02
   11.0005124	3.002283e+02
   12.0006243	3.003060e+02
    13.001107	3.003829e+02
   13.9997402	3.004589e+02
  14.99964955	3.005341e+02
  15.99955708	3.006084e+02
  17.00134405	3.006821e+02
  18.00000337	3.007550e+02
  19.00006167	3.008273e+02
 20.001505108	3.008993e+02
 20.999254464	3.009703e+02
  22.00150266	3.010410e+02
 23.001714829	3.011109e+02
 23.999634984	3.011799e+02
25.00095516804	3.012486e+02
25.9996836352	3.013164e+02
26.99932842931	3.013835e+02
28.00029166142	3.014501e+02
28.99937441246	3.015159e+02
30.002134441893	3.015813e+02
31.002014765417	3.016458e+02
32.001552166551	3.017096e+02
33.000560257147	3.017727e+02
33.999249928093	3.018350e+02
35.00108530523362	3.018970e+02
36.00057592118466	3.019582e+02
37.00120630448001	3.020188e+02
38.00022932106895	3.020788e+02
39.00052258115672	3.021382e+02
40.0012943804983152	3.021972e+02
41.0019879837090926	3.022557e+02
41.9992708912271695	3.023136e+02
43.0021545135227328	3.023717e+02
44.0019391598090266	3.024294e+02
44.9992995861729526	3.024868e+02
46.0009844670853099	3.025444e+02
47.0014489491798813	3.026017e+02
48.0008801364990703	3.026587e+02
48.9995304912996801	3.027154e+02
50.0001794237682375	3.027719e+02
50.9993551299025256	3.028279e+02
51.9998205148969248	3.028837e+02
53.0015311001695864	3.029390e+02
54.0013696283965601	3.029939e+02
54.9993238877661597	3.030482e+02
56.0015339065886479	3.031024e+02
57.0018205760141825	3.031560e+02
58.000096433294182	3.032093e+02
58.9991359299691496	3.032622e+02
60.0016627635771727	3.033149e+02
61.0010778941215932	3.033672e+02
62.0000130700834902	3.034191e+02
63.0010986270090001	3.034709e+02
64.0009690790207202	3.035223e+02
64.9994918949116851	3.035733e+02
65.9998560646141783	3.036242e+02
66.9992477683962306	3.036747e+02
68.0009249354785794	3.037252e+02
69.0019475640447695	3.037753e+02
69.9993513960609874	3.038249e+02
70.9993591323269015	3.038744e+02
72.0020465187059102	3.039237e+02
73.0013581031466714	3.039726e+02
74.000423255190384	3.040212e+02
74.9993458644687365	3.040695e+02
76.0013508435945511	3.041177e+02
77.0005510755528491	3.041654e+02
78.0000113736252843	3.042128e+02
78.9992549610128236	3.042599e+02
80.0009720943383229	3.043067e+02
81.0020589541296232	3.043532e+02
81.9992454193614009	3.043993e+02
83.0014611672898184	3.044452e+02
83.9993628440124525	3.044906e+02
85.0020431376517678	3.045359e+02
86.000333987758637	3.045808e+02
87.0003695380874404	3.046254e+02
88.0020658759812022	3.046698e+02
88.9993795452335519	3.047137e+02
90.0015696379174557	3.047575e+02
90.9997903684166971	3.048009e+02
92.0003898830139377	3.048442e+02
93.0006194266289867	3.048871e+02
94.0007057145538596	3.049298e+02
95.0007997335581251	3.049721e+02
96.0009686444809773	3.050142e+02
97.0012373806239623	3.050560e+02
98.0016053172324462	3.050976e+02
99.0020344570527584	3.051388e+02
99.9994552294174497	3.051796e+02
100.999851234731452	3.052202e+02
102.000136850138333	3.052605e+02
103.000241500016131	3.053004e+02
104.000073061910427	3.053401e+02
104.999552930719901	3.053794e+02
106.001633206025147	3.054185e+02
107.000192996165325	3.054572e+02
108.001260471577879	3.054957e+02
109.001819915586253	3.055338e+02
110.001932009313407	3.055717e+02
111.001635624775176	3.056092e+02
112.000980310532839	3.056465e+02
113.000018915714335	3.056834e+02
114.001807672044521	3.057202e+02
115.000361508444968	3.057565e+02
116.001781982353393	3.057927e+02
117.000048097326257	3.058284e+02
118.00122264940498	3.058640e+02
118.999382617868164	3.058991e+02
120.000616562993542	3.059340e+02
121.002007225989203	3.059686e+02
122.000661640430124	3.060027e+02
122.999734831133267	3.060365e+02
123.99952262735836	3.060699e+02
125.000333848736219	3.061031e+02
125.999642959708595	3.061359e+02
127.000956414914896	3.061684e+02
128.001293686371213	3.062007e+02
129.000700621259568	3.062327e+02
130.002135701572797	3.062645e+02
130.999533849213833	3.062960e+02
131.999244240588723	3.063275e+02
133.001101245812436	3.063589e+02
134.0020971077968	3.063902e+02
135.002075643628388	3.064214e+02
136.000848975566782	3.064524e+02
137.001309026256649	3.064833e+02
138.000254544982795	3.065140e+02
139.000649575250975	3.065445e+02
139.999224934568531	3.065749e+02
141.002036637829093	3.066051e+02
141.999654446908238	3.066350e+02
143.001271960468813	3.066649e+02
144.000548532269903	3.066945e+02
145.00044839448563	3.067239e+02
146.000849050599697	3.067532e+02
147.001677167223932	3.067824e+02
147.99975047252525	3.068112e+02
149.001369451029944	3.068400e+02
150.000282434108982	3.068684e+02
150.999551328031998	3.068967e+02
151.999184896249147	3.069248e+02
152.999208185270845	3.069526e+02
153.999585696359787	3.069803e+02
155.00029833082661	3.070077e+02
156.001343237128225	3.070349e+02
156.999457705577299	3.070619e+02
158.000686168546764	3.070886e+02
159.001776087131674	3.071152e+02
159.999561059721657	3.071414e+02
161.000550527382018	3.071674e+02
162.001972559951867	3.071932e+02
163.000888609676053	3.072188e+02
164.000316687785954	3.072441e+02
165.000096140130211	3.072693e+02
166.000088612179667	3.072943e+02
167.000061340522421	3.073192e+02
167.999782828424799	3.073438e+02
168.999172341489157	3.073682e+02
170.001230534148533	3.073924e+02
170.999544804163264	3.074162e+02
172.00045496321485	3.074398e+02
173.000757901779707	3.074632e+02
174.000444045117518	3.074862e+02
174.999760596408947	3.075090e+02
176.002157779350711	3.075316e+02
177.001661582702695	3.075539e+02
178.001628294344187	3.075759e+02
178.999162606507298	3.075977e+02
180.000503473761029	3.076193e+02
180.999207866690625	3.076405e+02
182.001208593017452	3.076615e+02
183.000047488950003	3.076822e+02
184.001808139786192	3.077025e+02
184.999937399233318	3.077224e+02
186.000595667805044	3.077420e+02
187.000530755139152	3.077610e+02
187.999425330199387	3.077797e+02
189.000062339945401	3.077979e+02
189.999357851741564	3.078158e+02
191.001057008974414	3.078332e+02
191.999795576908383	3.078501e+02
193.002046035564831	3.078665e+02
194.001168212745995	3.078820e+02
195.000232847940111	3.078966e+02
195.99953641592225	3.079104e+02
196.999439237675062	3.079236e+02
197.999269378639354	3.079364e+02
199.000650340503455	3.079489e+02
200.000842022656059	3.079612e+02
201.00119110761409	3.079731e+02
202.001134602567248	3.079846e+02
202.999417775043128	3.079956e+02
204.000827370954454	3.080062e+02
205.000559713225243	3.080166e+02
206.000502514791634	3.080268e+02
207.00011763453864	3.080370e+02
207.999195525308778	3.080472e+02
209.000671541921633	3.080573e+02
210.001817201873507	3.080673e+02
211.0002458890323	3.080769e+02
211.999364130299796	3.080861e+02
213.001839980993253	3.080948e+02
214.000870215088923	3.081028e+02
215.002023773923156	3.081103e+02
216.001504856122665	3.081174e+02
217.002189670235424	3.081241e+02
218.001143521538211	3.081305e+02
219.001212277794565	3.081367e+02
219.999323567592427	3.081426e+02
221.002031393932299	3.081483e+02
222.000217558785977	3.081536e+02
222.99997324448853	3.081588e+02
224.001867206834618	3.081639e+02
225.000375206176443	3.081688e+02
226.00200082573221	3.081737e+02
227.000972114187221	3.081785e+02
228.000539892764351	3.081834e+02
229.000893584517286	3.081883e+02
229.999159920018428	3.081932e+02
231.001639840260879	3.081982e+02
231.999283063040082	3.082032e+02
233.00130211069677	3.082082e+02
234.001698960598503	3.082134e+02
235.000597990278322	3.082187e+02
236.001193587127887	3.082242e+02
237.000556169397072	3.082298e+02
238.001863471893813	3.082355e+02
239.002111919382003	3.082414e+02
240.001418570662111	3.082475e+02
240.999928434963607	3.082537e+02
242.000753346005581	3.082602e+02
243.000790839895984	3.082669e+02
244.000120610590187	3.082737e+02
245.0016559814066	3.082807e+02
246.000482859716641	3.082878e+02
246.99990715638009	3.082950e+02
247.999403010268622	3.083024e+02
249.001563930534189	3.083099e+02
249.99991638000995	3.083174e+02
251.00124377511591	3.083248e+02
252.000612908785769	3.083323e+02
253.001586776589619	3.083397e+02
254.001036030762123	3.083470e+02
254.999975551401036	3.083541e+02
256.000901604547437	3.083612e+02
257.000429744924418	3.083680e+02
258.001671223638084	3.083747e+02
259.001589548794925	3.083811e+02
260.000266655218695	3.083873e+02
261.000969535167712	3.083932e+02
262.000494430921947	3.083987e+02
263.002051357954429	3.084039e+02
263.999663054152222	3.084087e+02
264.999816340629877	3.084131e+02
265.999646482167861	3.084172e+02
266.999122460407477	3.084209e+02
268.001488989346399	3.084245e+02
269.000493605175279	3.084278e+02
270.001990224823089	3.084310e+02
270.999337872084311	3.084342e+02
272.001339823267472	3.084375e+02
273.001474013986467	3.084410e+02
273.999720630411105	3.084445e+02
274.999301622459257	3.084482e+02
276.00038858779908	3.084520e+02
277.000037429810845	3.084558e+02
277.99913815271151	3.084596e+02
279.001896234752223	3.084633e+02
279.999861762659407	3.084669e+02
280.999488359605721	3.084705e+02
282.000390167863145	3.084740e+02
283.001987050804189	3.084775e+02
284.000403045574728	3.084808e+02
285.001459538132849	3.084840e+02
286.001911629869539	3.084867e+02
287.001710184502201	3.084891e+02
288.000877315806576	3.084910e+02
288.999535921458005	3.084927e+02
290.000849147452925	3.084941e+02
291.001784583192489	3.084953e+02
291.999470265078116	3.084965e+02
293.000350726228248	3.084977e+02
294.001453998386921	3.084990e+02
294.99966250983897	3.085004e+02
296.001136649546311	3.085020e+02
296.999687551871489	3.085038e+02
298.001247068601629	3.085057e+02
298.999548585051969	3.085077e+02
300.000750059626967	3.085097e+02
301.001680673730334	3.085117e+02
301.999163971664927	3.085136e+02
302.999367282612582	3.085155e+02
303.999165754537898	3.085172e+02
305.001521887055901	3.085189e+02
306.000375119051853	3.085204e+02
307.001951876416115	3.085220e+02
308.000142042528466	3.085235e+02
309.001212895246681	3.085250e+02
309.999178614301854	3.085266e+02
311.000144539620237	3.085283e+02
312.001033491892031	3.085301e+02
313.001930242594824	3.085321e+02
313.999795573081769	3.085342e+02
315.000737111554429	3.085364e+02
316.001795102997278	3.085388e+02
317.00001860641413	3.085412e+02
318.001569055336915	3.085437e+02
319.000370431756608	3.085463e+02
319.999538897728996	3.085489e+02
321.002128177021007	3.085516e+02
322.001976849831294	3.085543e+02
323.002194787671499	3.085569e+02
323.999791101614449	3.085595e+02
325.000926405668565	3.085621e+02
325.999464392117318	3.085647e+02
327.001583740419449	3.085673e+02
328.001120124628414	3.085699e+02
329.001056924662748	3.085724e+02
330.001316807607054	3.085750e+02
331.001922953082271	3.085775e+02
331.999820607277798	3.085800e+02
333.001108668105701	3.085826e+02
333.999592450065279	3.085851e+02
335.001430012474145	3.085876e+02
336.000445902539866	3.085901e+02
336.999658818477883	3.085926e+02
338.002156064041969	3.085952e+02
339.001851563835544	3.085977e+02
340.001899743984723	3.086003e+02
340.999156465230499	3.086029e+02
341.999853923984119	3.086055e+02
343.000704997008711	3.086083e+02
344.001376858938784	3.086111e+02
345.00203887706607	3.086140e+02
345.999955215504826	3.086169e+02
347.000522663162087	3.086199e+02
348.000200029152836	3.086229e+02
349.000522755694988	3.086259e+02
350.001253613143035	3.086290e+02
351.000624273237918	3.086320e+02
351.999435802063715	3.086350e+02
353.002196744729815	3.086379e+02
354.001070048515999	3.086408e+02
355.001641036799754	3.086436e+02
355.999599629701663	3.086463e+02
357.000540487227624	3.086489e+02
358.000075444862205	3.086516e+02
358.999302800154226	3.086542e+02
360.001709987803054	3.086568e+02
361.000074298292702	3.086595e+02
362.000859290272558	3.086622e+02
363.001622746756937	3.086649e+02
364.001832563596452	3.086676e+02
365.001535463384243	3.086704e+02
366.00131467837474	3.086733e+02
367.00110538924082	3.086761e+02
368.000736030787152	3.086789e+02
369.000275218586978	3.086817e+02
369.999824276884169	3.086845e+02
370.999426774194205	3.086872e+02
372.002080612393968	3.086898e+02
373.001588932385062	3.086924e+02
374.001081446833666	3.086948e+02
375.000626116571937	3.086972e+02
376.000218547876443	3.086995e+02
376.999910591726973	3.087017e+02
377.999797780145002	3.087039e+02
378.999906813743962	3.087061e+02
380.000244808336674	3.087083e+02
381.000865619572778	3.087105e+02
382.001806304484546	3.087128e+02
382.999946272056377	3.087151e+02
384.001355606036498	3.087175e+02
384.99985631053687	3.087199e+02
386.0015402976166	3.087224e+02
387.000162701931743	3.087249e+02
388.001801501548812	3.087273e+02
389.000300444038373	3.087297e+02
390.001742707954349	3.087320e+02
390.99990443699852	3.087342e+02
392.000936197689441	3.087364e+02
393.00177492471073	3.087386e+02
393.999328852185783	3.087406e+02
394.999780108992752	3.087427e+02
396.000134804692266	3.087448e+02
397.00042004616688	3.087470e+02
398.000667031307955	3.087491e+02
399.000931769728538	3.087514e+02
400.001227470614424	3.087537e+02
401.001544797640236	3.087561e+02
402.001902596511854	3.087586e+02
402.999246021227464	3.087611e+02
403.999704245461601	3.087637e+02
405.000213976000339	3.087663e+02
406.000785726507388	3.087689e+02
407.001408508531085	3.087716e+02
408.002071314539194	3.087743e+02
408.999708595374841	3.087769e+02
410.000459919667492	3.087796e+02
411.001252828558734	3.087822e+02
412.002098628850092	3.087849e+02
412.999937502784405	3.087875e+02
414.000908309496879	3.087902e+02
415.001942485681127	3.087928e+02
415.999966713914432	3.087954e+02
417.001110452812043	3.087980e+02
417.999223947442431	3.088005e+02
419.000449839982025	3.088031e+02
420.001714127287812	3.088056e+02
420.999943618431587	3.088080e+02
422.001290078822194	3.088105e+02
422.999615985253001	3.088129e+02
424.001060314288623	3.088154e+02
424.999478222599919	3.088178e+02
426.001017745420938	3.088203e+02
426.999530720086625	3.088227e+02
428.001152874177365	3.088252e+02
428.999734515582077	3.088278e+02
430.001408625449528	3.088303e+02
431.000010340225799	3.088329e+02
432.001667839199797	3.088355e+02
433.000221815074497	3.088381e+02
434.001804251808949	3.088407e+02
435.000261415516377	3.088433e+02
436.001731095603191	3.088459e+02
437.000062707295285	3.088484e+02
438.001391866866186	3.088510e+02
438.999570770102707	3.088534e+02
440.000737846380048	3.088559e+02
441.00182111589163	3.088583e+02
441.999771361342766	3.088607e+02
443.000763413799177	3.088631e+02
444.001696459830953	3.088654e+02
444.999500435886944	3.088678e+02
446.00032752414711	3.088701e+02
447.001117645498596	3.088725e+02
448.001883226712721	3.088749e+02
448.999571098762033	3.088773e+02
450.00033578121878	3.088798e+02
451.00111711588346	3.088822e+02
452.001919501336943	3.088847e+02
452.999672442533097	3.088872e+02
454.000509144188925	3.088897e+02
455.001349657630726	3.088923e+02
456.002184940512961	3.088947e+02
456.999938224470498	3.088972e+02
458.000744652436538	3.088996e+02
459.001531729330225	3.089020e+02
459.999229727689283	3.089044e+02
460.999980922561065	3.089067e+02
462.000721221335311	3.089090e+02
463.001457879234579	3.089112e+02
464.002198438059679	3.089135e+02
464.999883907378376	3.089156e+02
466.000675712563577	3.089178e+02
467.001515884230287	3.089199e+02
467.999330505639648	3.089221e+02
469.000266807748972	3.089242e+02
470.001261089356149	3.089264e+02
470.999245163364833	3.089285e+02
472.000360361590424	3.089307e+02
473.001534471459308	3.089329e+02
473.99969086704948	3.089351e+02
475.000964073942441	3.089373e+02
475.999201404603866	3.089395e+02
477.000533716233122	3.089418e+02
478.001873839315238	3.089440e+02
479.000134933457161	3.089463e+02
480.001446950719014	3.089485e+02
480.999654544415421	3.089508e+02
482.00089220139256	3.089530e+02
483.002083364948987	3.089552e+02
484.000154946090731	3.089574e+02
485.001249816296991	3.089596e+02
485.999230737996697	3.089618e+02
487.00024615858581	3.089639e+02
488.001234027089424	3.089661e+02
488.999135972829379	3.089682e+02
490.000107037485407	3.089703e+02
491.001090819159572	3.089724e+02
492.002101665974578	3.089745e+02
493.00008301340813	3.089766e+02
494.001188349803726	3.089787e+02
494.999284798957547	3.089809e+02
496.000521798226259	3.089830e+02
497.001832923759764	3.089852e+02
498.000146640750472	3.089874e+02
499.001605196865512	3.089896e+02
500.000061963698101	3.089918e+02
501.001655800322453	3.089941e+02
502.000234992100616	3.089963e+02
503.001937609868378	3.089986e+02
504.000610741995047	3.090008e+02
504.999319615887543	3.090031e+02
506.001131858100678	3.090053e+02
506.999897443339478	3.090075e+02
508.001760645684897	3.090097e+02
509.00057494393468	3.090119e+02
509.999413898640967	3.090140e+02
511.001351703648083	3.090162e+02
512.000243591651156	3.090183e+02
512.999166595937822	3.090204e+02
514.001198888276008	3.090225e+02
515.000197471901288	3.090246e+02
515.999240191230342	3.090267e+02
517.001404900109492	3.090288e+02
518.000546014341694	3.090309e+02
518.9997392945819	3.090330e+02
520.002060063838258	3.090351e+02
521.001358525883006	3.090373e+02
522.000709177407316	3.090395e+02
523.000105090532884	3.090416e+02
523.999529934207544	3.090438e+02
525.002084781041731	3.090460e+02
526.001622665853461	3.090482e+02
527.001171985616338	3.090504e+02
528.000721685101212	3.090525e+02
529.000262130536157	3.090547e+02
529.999796097172407	3.090569e+02
530.999318975361916	3.090590e+02
532.001899480313568	3.090612e+02
533.001399512774583	3.090633e+02
534.000900020699419	3.090655e+02
535.000404316961408	3.090676e+02
535.999921060856764	3.090697e+02
536.999458418444192	3.090718e+02
538.002103412542056	3.090739e+02
539.001714787084325	3.090760e+02
540.001366371732502	3.090780e+02
541.001061457090373	3.090801e+02
542.000809750296298	3.090822e+02
543.000609536481306	3.090843e+02
544.000457062784562	3.090864e+02
545.000356160035494	3.090885e+02
546.000305324828219	3.090905e+02
547.000296519477502	3.090926e+02
548.00032856348605	3.090947e+02
549.00039992437064	3.090968e+02
550.00050195823269	3.090989e+02
551.000628867013802	3.091010e+02
552.000778619984771	3.091031e+02
553.000945071355659	3.091052e+02
554.001124319738892	3.091072e+02
555.001316586008329	3.091093e+02
556.001519320644888	3.091114e+02
557.001731672484084	3.091134e+02
558.001954675918114	3.091154e+02
559.002190567552361	3.091174e+02
559.999362884992479	3.091194e+02
560.999630826612474	3.091214e+02
561.999920830554856	3.091234e+02
563.000235633839111	3.091254e+02
564.000576550278424	3.091274e+02
565.000944078801922	3.091294e+02
566.001337432372793	3.091313e+02
567.001755222184784	3.091333e+02
568.002196495543558	3.091353e+02
568.999580920182666	3.091372e+02
570.000062861669335	3.091392e+02
571.000563368208532	3.091412e+02
572.001080476734842	3.091432e+02
573.001612390215314	3.091452e+02
574.002157901395321	3.091471e+02
574.999637739490481	3.091491e+02
576.000208103055229	3.091511e+02
577.000790376419445	3.091531e+02
578.00138554894454	3.091550e+02
579.001995962862566	3.091570e+02
579.999544495687815	3.091589e+02
581.000190636220964	3.091608e+02
582.000857445269162	3.091627e+02
583.001547127940512	3.091647e+02
583.999183521675604	3.091666e+02
584.999926948589632	3.091684e+02
586.000700489218843	3.091703e+02
587.001506598911533	3.091722e+02
587.99926799382547	3.091740e+02
589.000145409217112	3.091759e+02
590.001061787678282	3.091777e+02
591.002019298079972	3.091796e+02
591.999939170705602	3.091814e+02
593.000983032244562	3.091832e+02
594.002072942547557	3.091850e+02
595.000129737546672	3.091869e+02
596.001316151765764	3.091887e+02
596.999472665188705	3.091905e+02
598.000761925122447	3.091923e+02
599.002104637616185	3.091941e+02
600.000419838153448	3.091958e+02
601.001870748756801	3.091976e+02
602.000295198039908	3.091994e+02
603.001856482751009	3.092012e+02
604.000391285519527	3.092029e+02
605.002064012870051	3.092047e+02
606.000709777146653	3.092064e+02
606.999409940374107	3.092081e+02
608.001245875481345	3.092099e+02
609.000049676068443	3.092116e+02
610.001977780122729	3.092133e+02
611.000845954300644	3.092150e+02
611.99973879132358	3.092167e+02
613.0017381606973	3.092185e+02
614.000676823116464	3.092202e+02
614.999639012873558	3.092219e+02
616.001711923290941	3.092236e+02
617.000734056203328	3.092253e+02
617.999790448542399	3.092270e+02
619.001965576661064	3.092287e+02
620.001094966328083	3.092304e+02
621.000264110250328	3.092322e+02
621.999473763055789	3.092339e+02
623.001807770423625	3.092356e+02
624.001097977880477	3.092374e+02
625.000428471307941	3.092391e+02
625.99979888765597	3.092408e+02
626.999206816023047	3.092426e+02
628.001734472853627	3.092443e+02
629.001210015546008	3.092460e+02
630.000717516821396	3.092478e+02
631.000256078500001	3.092495e+02
631.999825123270284	3.092512e+02
632.999426658020411	3.092530e+02
634.00214914754838	3.092547e+02
635.00182383606159	3.092564e+02
636.00153826904284	3.092582e+02
637.001295668469538	3.092599e+02
638.001098441052591	3.092616e+02
639.000949078242797	3.092633e+02
640.000852172062196	3.092650e+02
641.000811977679632	3.092667e+02
642.000826046606221	3.092684e+02
643.00088421093858	3.092701e+02
644.000987198982557	3.092718e+02
645.001135073950991	3.092735e+02
646.001327198662466	3.092752e+02
647.001564001378711	3.092768e+02
648.001846248315132	3.092785e+02
649.002175559720968	3.092802e+02
649.999466234982947	3.092819e+02
650.999894350096497	3.092835e+02
652.000373217148535	3.092852e+02
653.000902076524198	3.092869e+02
654.00147562295092	3.092885e+02
655.002088305455345	3.092902e+02
655.999648575967171	3.092918e+02
657.000332758057425	3.092935e+02
658.0010501714155	3.092952e+02
659.001800652544148	3.092968e+02
659.99949457924231	3.092984e+02
661.00031023942654	3.093001e+02
662.001159454296953	3.093017e+02
663.002044136727022	3.093033e+02
663.999875970023027	3.093050e+02
665.000834738074445	3.093066e+02
666.001832272214756	3.093082e+02
666.999780480688059	3.093098e+02
668.00086067640018	3.093114e+02
669.0019849067927	3.093130e+02
670.000066609870373	3.093146e+02
671.001289291633157	3.093162e+02
671.999475757621894	3.093178e+02
673.000807624938147	3.093194e+02
674.00218933117651	3.093210e+02
675.000530347012273	3.093225e+02
676.00201286504398	3.093241e+02
677.000455554626456	3.093256e+02
678.00203940307631	3.093272e+02
679.000578665894523	3.093287e+02
679.999162369956139	3.093302e+02
681.000880745148152	3.093317e+02
681.99954849522635	3.093332e+02
683.001348837939759	3.093348e+02
684.000098695633596	3.093362e+02
685.001982198614996	3.093377e+02
686.000816954055722	3.093392e+02
686.999697858463037	3.093407e+02
688.00171817598391	3.093422e+02
689.000696449352063	3.093436e+02
689.999727806012288	3.093451e+02
691.001907207350882	3.093465e+02
692.001049376099786	3.093480e+02
693.000249775258794	3.093494e+02
693.999509619646233	3.093508e+02
695.001924732240695	3.093522e+02
696.001309593331143	3.093536e+02
697.000760008039492	3.093550e+02
698.000278654198837	3.093564e+02
698.999867765049999	3.093578e+02
699.999528647373381	3.093592e+02
700.999261851223423	3.093606e+02
702.002166662328364	3.093620e+02
703.002048461605796	3.093634e+02
704.002016020040287	3.093647e+02
705.002067926577752	3.093661e+02
706.00220676286699	3.093675e+02
706.999339558774523	3.093689e+02
707.999660490636643	3.093702e+02
709.000074117678878	3.093716e+02
710.000580381524742	3.093729e+02
711.001179537292728	3.093742e+02
712.001873981621088	3.093756e+02
712.999567203269407	3.093769e+02
714.00045794582627	3.093782e+02
715.001450105897447	3.093795e+02
715.999448579511522	3.093808e+02
717.000655854154957	3.093822e+02
718.0019742138428	3.093835e+02
719.000305392174141	3.093848e+02
720.001852983587924	3.093861e+02
721.000416218402506	3.093874e+02
722.002200570993409	3.093887e+02
723.001008981241284	3.093900e+02
723.999950655311068	3.093912e+02
725.002133639869839	3.093925e+02
726.001353102790858	3.093938e+02
727.00071608947178	3.093951e+02
728.00022038558518	3.093963e+02
728.999871265919523	3.093976e+02
729.999674178006103	3.093989e+02
730.999624470423214	3.094001e+02
731.999723814716162	3.094014e+02
732.999981920546702	3.094027e+02
734.000399350975727	3.094039e+02
735.000982023089364	3.094052e+02
736.001751885511112	3.094064e+02
736.999619236443891	3.094077e+02
738.000802725583412	3.094089e+02
739.002187912777913	3.094102e+02
740.000664238488525	3.094114e+02
740.999335135875413	3.094127e+02
742.001306272409806	3.094139e+02
743.00035018367214	3.094152e+02
743.99957864434225	3.094165e+02
745.00209378730176	3.094177e+02
746.001656578055645	3.094190e+02
747.001380774958648	3.094202e+02
748.00126859852594	3.094215e+02
749.001303812227547	3.094228e+02
750.001478226125414	3.094240e+02
751.001804049645898	3.094253e+02
751.999170492685494	3.094266e+02
752.999809978551639	3.094278e+02
754.000617256708324	3.094291e+02
755.00160456231481	3.094303e+02
755.9996414509244	3.094316e+02
757.000951254417714	3.094328e+02
757.999294888358463	3.094341e+02
759.000917716026038	3.094353e+02
759.999566380384408	3.094366e+02
761.001471295675515	3.094378e+02
762.000398866962996	3.094390e+02
762.999480786557797	3.094402e+02
764.001828470308624	3.094415e+02
765.001191457607433	3.094427e+02
766.000702680357449	3.094439e+02
767.000354804227186	3.094451e+02
768.000129205270241	3.094463e+02
769.000031120643371	3.094476e+02
770.000070989382039	3.094488e+02
771.000232985301295	3.094500e+02
772.000507517313849	3.094512e+02
773.00091097560221	3.094526e+02
774.001447959901384	3.094538e+02
774.998969051475342	3.094550e+02
775.999733179126224	3.094561e+02
777.000628535097917	3.094573e+02
777.998511779941055	3.094585e+02
778.999625465291729	3.094597e+02
780.000852992181535	3.094608e+02
780.999067502251023	3.094620e+02
782.000501651750483	3.094632e+02
782.998890402950906	3.094643e+02
784.000510709332616	3.094655e+02
784.999095951145591	3.094666e+02
786.000885146906739	3.094677e+02
786.999626701129273	3.094689e+02
788.001601758150173	3.094700e+02
789.000530123687213	3.094711e+02
789.999530848230279	3.094722e+02
790.99862715721315	3.094733e+02
792.000951261299747	3.094744e+02
793.000211673519857	3.094755e+02
793.999551064803086	3.094766e+02
794.998993047389376	3.094776e+02
795.998539242270454	3.094787e+02
797.00121385970408	3.094798e+02
798.00083212691186	3.094809e+02
799.000522314330169	3.094820e+02
800.000250605756605	3.094830e+02
801.000017169912667	3.094841e+02
801.999842073571358	3.094852e+02
802.999706484609419	3.094863e+02
803.999582733291618	3.094874e+02
804.999482047756146	3.094884e+02
805.999415658781686	3.094895e+02
806.999351759117303	3.094906e+02
807.999274949151413	3.094917e+02
808.999208724711366	3.094927e+02
809.99914808867095	3.094938e+02
810.999056193766251	3.094949e+02
811.998932488494233	3.094960e+02
812.998803996338438	3.094971e+02
813.998654002002354	3.094981e+02
815.001579920991389	3.094992e+02
816.00133257523828	3.095003e+02
817.001074908216992	3.095014e+02
818.000771926080461	3.095025e+02
819.000393426636151	3.095035e+02
819.999981202322829	3.095046e+02
820.999550655257735	3.095057e+02
821.99903903299446	3.095068e+02
823.001566279714211	3.095078e+02
824.000924564271259	3.095089e+02
825.000221582081508	3.095100e+02
825.999382328954994	3.095110e+02
827.001587692406019	3.095121e+02
828.000627895948355	3.095131e+02
828.999551449502519	3.095142e+02
830.001467451544841	3.095152e+02
831.00021531107916	3.095162e+02
831.998895971035608	3.095172e+02
833.00053533753794	3.095182e+02
833.998955071971295	3.095192e+02
835.00047699596098	3.095202e+02
835.998715522652674	3.095211e+02
836.999930671296283	3.095221e+02
838.001123477570104	3.095230e+02
838.999081881752318	3.095239e+02
839.999970080385197	3.095249e+02
841.000794857779169	3.095258e+02
842.001560905365864	3.095267e+02
842.999001408825166	3.095276e+02
843.999452529910513	3.095284e+02
844.999872326116702	3.095293e+02
846.00012386627759	3.095301e+02
847.000222763155534	3.095310e+02
848.000292433634058	3.095318e+02
849.000242785677756	3.095326e+02
850.00002896157423	3.095334e+02
850.999761643604757	3.095341e+02
851.999393702273892	3.095349e+02
852.998859638489989	3.095356e+02
854.001360649677281	3.095363e+02
855.000657095778593	3.095370e+02
855.999813643532775	3.095377e+02
856.998873063266615	3.095383e+02
858.000986364875075	3.095389e+02
858.999868720381755	3.095396e+02
859.998649532608965	3.095402e+02
861.000471721768236	3.095408e+02
861.999066316743551	3.095413e+02
863.00067494956329	3.095419e+02
863.999087793853846	3.095424e+02
865.000544472149613	3.095429e+02
865.998803714020937	3.095434e+02
867.000122603809928	3.095439e+02
868.001384262134707	3.095443e+02
868.999472388112508	3.095448e+02
870.000643261292907	3.095452e+02
870.998667684868224	3.095456e+02
871.999782446837344	3.095460e+02
873.000874958462532	3.095463e+02
873.998827776105145	3.095467e+02
874.999872922336863	3.095470e+02
876.000892789683121	3.095473e+02
876.998770256755165	3.095476e+02
877.999739486612611	3.095479e+02
879.000683825170086	3.095481e+02
880.001608363271998	3.095483e+02
880.999396520939513	3.095485e+02
882.000287412664647	3.095487e+02
883.001169270520791	3.095489e+02
883.998928084996123	3.095490e+02
884.999805708670237	3.095492e+02
886.000690875077112	3.095493e+02
887.001587333905491	3.095494e+02
887.999378046442303	3.095494e+02
889.000298849841215	3.095495e+02
890.001227169192589	3.095495e+02
890.999038491454712	3.095495e+02
891.999963323031352	3.095495e+02
893.000877356106457	3.095495e+02
893.998656425749232	3.095495e+02
894.999532193965592	3.095495e+02
896.00038300383892	3.095495e+02
897.001206450445807	3.095494e+02
897.998883302916397	3.095494e+02
898.999649348573598	3.095493e+02
900.000386891797802	3.095493e+02
901.001097298132891	3.095492e+02
901.998664901937559	3.095491e+02
902.999325858317889	3.095490e+02
903.999963408500321	3.095489e+02
905.00057879198755	3.095488e+02
906.001172663939997	3.095487e+02
906.998627661731803	3.095486e+02
907.999177637872663	3.095485e+02
908.999704328773987	3.095484e+02
910.000205979892371	3.095483e+02
911.000680661403294	3.095482e+02
912.001126076367655	3.095480e+02
913.0015389069398	3.095479e+02
913.998800052091042	3.095478e+02