# Probe 0 (1.8 2.12 1.42)
# Probe 1 (4.8 1.65 1.5)
# Probe 2 (2.5 2.09 0.95)
# Probe 3 (2.8 0.65 0.75)
#       Probe             0             1             2             3
#        Time
     0.999427        300.15        300.15        300.15        300.15
      2.00049        300.15       300.149        300.15        300.15
      3.00031        300.15       300.149        300.15        300.15
      3.99974        300.15        300.15        300.15        300.15
      4.99984        300.15        300.15        300.15        300.15
      6.00101        300.15        300.15        300.15        300.15
      7.00045        300.15        300.15        300.15        300.15
      8.00037        300.15        300.15        300.15        300.15
      9.00001        300.15        300.15        300.15        300.15
      10.0011        300.15        300.15        300.15        300.15
      11.0005        300.15        300.15        300.15       300.149
      12.0006       300.149       300.154       300.147       300.149
      13.0011       300.143       300.163       300.075       300.149
      13.9998       300.131       300.173       299.788       300.147
      14.9997       300.119       300.183       299.494       300.141
      15.9996       300.101       300.187       299.442       300.139
      17.0014       300.069       300.183       299.561       300.142
      18.0001       300.072       300.177       299.688       300.142
      19.0002       300.103       300.167       299.788       300.137
      20.0018       300.124       300.156       299.882       300.133
      20.9996       300.134       300.147       299.962       300.131
       22.002       300.136       300.142        300.02       300.135
      22.9993       300.133       300.143       300.061       300.142
      24.0004       300.122       300.149       300.093       300.151
      25.0019       300.105       300.159       300.115       300.161
      26.0008       300.088       300.175        300.13       300.171
      27.0006       300.074       300.193       300.139       300.181
      28.0018       300.064       300.214       300.144       300.191
       29.001       300.055       300.235       300.148       300.202
       30.001       300.044       300.256       300.152       300.213
       31.001        300.03       300.278       300.155       300.225
      32.0008       300.014         300.3       300.158       300.238
      32.9999       299.995       300.322       300.162       300.252
      34.0019       299.976       300.344       300.165       300.265
      35.0009       299.957       300.367       300.168        300.28
      36.0007        299.94        300.39       300.172       300.294
      37.0017        299.93       300.414       300.175       300.309
       38.001       299.929       300.438       300.178       300.324
      39.0016       299.941       300.461        300.18       300.341
      39.9996       299.966       300.481       300.181       300.358
      41.0005       300.005       300.497       300.182       300.376
      42.0009       300.054        300.51       300.185       300.393
      43.0008       300.105       300.519       300.191        300.41
      44.0005       300.155       300.525       300.202       300.426
      45.0007       300.197       300.529       300.215       300.442
      46.0017       300.231       300.533        300.23       300.457
      47.0009       300.259       300.537       300.246       300.472
      48.0018       300.281       300.541       300.263       300.487
      49.0016       300.297       300.547       300.279       300.502
      49.9999       300.308       300.556       300.296       300.517
      50.9997       300.315       300.568       300.313       300.531
      52.0008       300.317       300.582       300.329       300.545
           53       300.318       300.598       300.346        300.56
      54.0004        300.32       300.616       300.362       300.574
      55.0021       300.325       300.633       300.377       300.589
      56.0019       300.333       300.651       300.392       300.605
      56.9998       300.343       300.668       300.407       300.621
      58.0018       300.357       300.685       300.421       300.638
      59.0016       300.371       300.703       300.435       300.655
      60.0022       300.386        300.72       300.449       300.672
      61.0001       300.402       300.737       300.462       300.689
      62.0013       300.418       300.754       300.475       300.707
      63.0022       300.434       300.771       300.487       300.724
      63.9994        300.45       300.787         300.5        300.74
      65.0021       300.466       300.803       300.512       300.756
      66.0007       300.481       300.819       300.524       300.772
      67.0017       300.496       300.835       300.536       300.788
      68.0022       300.511       300.851       300.549       300.805
      69.0023       300.525       300.869       300.562       300.821
      70.0021       300.539       300.886       300.575       300.838
      71.0015       300.553       300.904       300.589       300.855
      72.0003       300.568       300.921       300.602       300.871
      73.0018       300.585        300.94       300.616       300.887
      73.9998       300.602       300.958        300.63       300.903
      75.0005       300.619       300.975       300.643       300.919
      76.0009       300.635       300.993       300.657       300.934
      77.0011       300.651        301.01        300.67        300.95
      78.0009       300.665       301.027       300.683       300.966
      79.0002       300.678       301.043       300.696       300.981
      80.0023        300.69        301.06       300.708       300.997
      81.0011       300.702       301.076       300.721       301.011
      81.9997       300.713       301.093       300.733       301.026
      83.0013       300.725       301.109       300.746        301.04
      83.9999       300.737       301.127       300.759       301.053
      85.0018       300.749       301.144       300.772       301.068
      86.0009       300.762       301.161       300.785       301.083
           87       300.775       301.178       300.799       301.098
       88.002       300.789       301.195       300.812       301.115
      89.0004       300.803       301.212       300.826       301.132
      90.0011       300.817       301.228       300.839        301.15
      91.0008        300.83       301.244       300.852       301.168
      91.9995       300.843       301.259       300.864       301.185
      93.0001       300.854       301.273       300.877       301.202
      93.9996       300.865       301.287       300.889       301.217
      95.0012       300.876         301.3       300.901       301.232
       96.002       300.886       301.314       300.914       301.246
      97.0021       300.896       301.326       300.926       301.258
      98.0015       300.906       301.339       300.939        301.27
      99.0004       300.916        301.35       300.952        301.28
      100.002       300.925       301.361       300.966       301.291
          101       300.935       301.371       300.979       301.301
      102.002       300.944       301.379       300.992        301.31
          103       300.953       301.388       301.005       301.319
      104.001       300.962       301.394       301.018       301.326
      105.002        300.97       301.403       301.032       301.334
          106       300.979       301.407       301.045        301.34
      107.002       300.987       301.414       301.058       301.346
          108       300.994       301.418       301.071       301.351
      109.001       301.002       301.424       301.083       301.356
      110.002       301.009       301.427       301.096        301.36
          111       301.016       301.432       301.108       301.364
      112.001       301.023       301.434        301.12       301.367
      113.002       301.029       301.438       301.131        301.37
      114.002       301.035       301.441       301.142       301.372
          115       301.041       301.444       301.153       301.374
          116       301.046       301.446       301.164       301.375
          117       301.051       301.448       301.174       301.376
          118       301.056        301.45       301.183       301.376
          119        301.06       301.452       301.192       301.376
      120.002       301.064       301.453       301.201       301.376
      121.002       301.068       301.454        301.21       301.375
      122.001       301.072       301.455       301.219       301.373
          123       301.075       301.455       301.227       301.372
      124.002       301.078       301.456       301.235        301.37
      125.001       301.081       301.455       301.243       301.367
      126.002       301.083       301.457       301.251       301.364
      127.001       301.085       301.456        301.26        301.36
      128.002       301.086       301.457       301.268       301.355
      129.002       301.087       301.455       301.276        301.35
          130       301.087       301.456       301.284       301.345
          131       301.087       301.454       301.291       301.338
          132       301.086       301.454       301.298       301.331
      133.002       301.084       301.451       301.304       301.324
      134.001       301.082        301.45        301.31       301.315
          135       301.079       301.448       301.315       301.307
      136.001       301.076       301.446        301.32       301.297
          137       301.072       301.441       301.324       301.288
      138.001       301.069       301.438       301.328       301.277
          139       301.065       301.433       301.331       301.266
      140.001       301.062       301.429       301.334       301.254
      141.001        301.06       301.423       301.336       301.241
      142.001       301.057       301.419       301.337       301.226
      143.001       301.055       301.411       301.337        301.21
          144       301.051       301.403       301.336       301.192
          145       301.048       301.393       301.334       301.175
          146       301.044       301.383       301.333       301.159
      147.002       301.038       301.373       301.332       301.144
      148.002       301.031       301.363       301.331       301.128
          149       301.021       301.353       301.329        301.11
      150.001       301.009       301.344       301.325       301.089
      151.001       300.996       301.336       301.321       301.067
          152       300.985       301.327       301.317       301.045
      153.002       300.974       301.317       301.312       301.023
          154       300.963       301.309       301.308       301.003
      155.002       300.949       301.302       301.304       300.981
      156.002       300.932       301.296       301.302       300.957
          157       300.914       301.291       301.301        300.93
      158.002       300.893       301.285       301.304         300.9
      159.002       300.871        301.28       301.311       300.872
          160       300.849       301.277       301.327       300.846
      161.001       300.828       301.275       301.354       300.824
          162       300.809       301.273        301.39       300.801
      163.001       300.793       301.272       301.433       300.775
      164.002       300.781       301.272       301.477       300.749
      165.001       300.775       301.274       301.519       300.723
      166.001       300.774       301.276       301.557       300.701
      167.002       300.776       301.277       301.591        300.68
      168.002       300.783       301.277       301.618       300.665
          169        300.79       301.275       301.637       300.657
      170.002       300.799       301.271       301.646       300.655
      171.001       300.806       301.265       301.647       300.655
          172       300.812       301.259       301.642       300.654
          173       300.814       301.253       301.634        300.65
      174.002       300.812       301.247       301.624       300.638
      175.001       300.808       301.243       301.614        300.62
          176       300.802       301.239       301.606       300.596
          177       300.797       301.237       301.599       300.567
          178       300.793       301.232       301.593       300.527
      179.001       300.792       301.223       301.586       300.464
          180       300.792       301.209        301.58       300.375
      181.002       300.793        301.19       301.578       300.281
      182.001       300.793       301.171        301.58       300.202
          183       300.791       301.155       301.583       300.131
      184.001       300.787       301.144       301.583       300.048
      185.002       300.781       301.133       301.578        299.95
          186       300.773       301.122       301.567       299.853
      187.001       300.765        301.11       301.548       299.776
      188.002       300.757       301.103        301.52       299.729
          189        300.75       301.102       301.486       299.698
      190.001       300.742       301.101       301.449       299.662
      191.001       300.734       301.097       301.414       299.614
      192.002       300.725       301.092       301.377       299.567
          193       300.716       301.093       301.334       299.536
      194.001       300.706         301.1       301.291       299.517
      195.002       300.696       301.111       301.264       299.492
      196.001       300.685       301.122       301.243       299.458
          197       300.674       301.132        301.19       299.424
          198        300.66       301.137       301.094       299.384
      199.002       300.641       301.138       300.982       299.339
      200.002       300.614       301.139       300.875       299.308
      201.001       300.581        301.14        300.79       299.286
      202.001       300.546       301.137       300.729       299.259
          203       300.511        301.13       300.688       299.229
      204.002       300.479       301.125       300.667       299.211
      205.002       300.451       301.124       300.663       299.196
      206.001       300.427       301.127       300.657       299.174
      207.001       300.405       301.133       300.629       299.157
          208       300.382        301.14       300.617       299.157
          209       300.358       301.145       300.666       299.164
          210       300.335       301.144       300.735       299.169
      211.001       300.316       301.137       300.781       299.171
          212       300.304       301.124       300.847       299.165
          213       300.293       301.106        300.93       299.145
      214.001       300.282       301.084       300.984       299.118
          215       300.268       301.059       300.986       299.092
      216.001       300.251       301.033       300.952       299.067
      217.001        300.23       301.008       300.879       299.046
      218.002       300.208       300.986       300.762       299.037
      219.001       300.183       300.966       300.643       299.043
          220        300.16       300.948       300.552       299.057
      221.002       300.138        300.93       300.457       299.079
          222       300.118       300.916       300.347       299.105
          223       300.101       300.902       300.262       299.132
          224       300.084       300.889       300.205       299.154
      225.002       300.067       300.877       300.135       299.167
      226.002       300.047       300.865        300.06       299.169
      227.002       300.023       300.853       300.026        299.16
      228.001       299.995       300.842       300.005       299.139
      229.002       299.963       300.833       299.941       299.107
      230.001       299.926       300.826       299.885       299.067
          231       299.886       300.823       299.859        299.02
      232.001       299.843       300.824       299.805       298.967
          233       299.796       300.828       299.761        298.91
      234.002       299.748       300.832       299.783       298.853
          235       299.702       300.836       299.813       298.794
      236.001       299.657       300.838       299.869       298.737
      237.001       299.617       300.834       299.974       298.684
      238.001       299.584       300.826       300.078       298.633
      239.002       299.557       300.817       300.183       298.586
      240.002       299.538       300.804         300.3       298.545
          241       299.527       300.791       300.395       298.509
      242.002       299.521       300.777       300.463       298.479
      243.001        299.52       300.762        300.52       298.456
      244.002       299.522       300.748       300.566       298.439
      245.001       299.529       300.735       300.598       298.424
      246.001       299.539       300.722        300.63       298.412
          247       299.552       300.708       300.668       298.401
          248       299.568       300.694       300.705       298.388
      249.002       299.587        300.68       300.732       298.373
      250.001       299.608       300.665       300.748       298.359
      251.001        299.63       300.649       300.759       298.344
          252       299.653       300.632       300.766       298.325
      253.001       299.676       300.615       300.768       298.305
          254       299.699       300.596       300.762       298.284
      255.001       299.719       300.577        300.74       298.265
      256.001       299.738       300.557       300.694       298.251
      257.002       299.754       300.538       300.617       298.248
          258       299.768       300.519       300.515       298.256
      259.002       299.779         300.5       300.389       298.276
      260.001       299.787       300.482       300.245       298.309
          261       299.793       300.466       300.089       298.354
      262.002       299.797       300.454       299.925       298.407
          263       299.796        300.45       299.767       298.461
      264.001       299.789       300.449       299.626       298.509
      265.001       299.773       300.454        299.51       298.546
      266.002       299.747       300.463       299.431       298.565
      267.002       299.713       300.476         299.4       298.569
      268.001       299.674       300.489       299.422       298.559
      269.001       299.635       300.496       299.496        298.54
          270       299.598       300.497       299.622       298.512
          271       299.566       300.492       299.765       298.479
      272.002       299.536       300.482       299.867       298.442
      273.002       299.508       300.469       299.895       298.402
          274       299.478       300.456        299.88       298.356
      275.001       299.445        300.44        299.83        298.31
      276.001       299.409       300.422       299.769       298.273
          277       299.374       300.407       299.693       298.252
      278.001       299.342       300.395       299.594       298.248
          279       299.315       300.388         299.5       298.262
      280.001       299.296       300.386       299.434        298.29
      281.001       299.286       300.385       299.389        298.33
          282       299.284       300.383        299.36       298.377
      283.001       299.287       300.378       299.354       298.427
      284.001       299.295       300.374       299.372       298.475
      285.002       299.304       300.375       299.393       298.515
      286.002       299.314       300.379       299.425       298.541
      287.001        299.32       300.386       299.509       298.549
          288       299.323       300.393       299.646       298.536
      289.002        299.32       300.396       299.798       298.505
          290       299.313       300.392        299.92        298.46
      291.002       299.298       300.386       299.981       298.405
          292       299.276       300.381       299.964       298.345
      293.002       299.246       300.379       299.862       298.286
      294.002       299.204       300.377       299.725       298.233
      295.002       299.149       300.374       299.641       298.187
      296.001       299.081       300.369       299.638       298.142
      297.001       299.012       300.363       299.704       298.097
          298       298.954       300.354       299.789       298.056
          299       298.913       300.341       299.858        298.02
      300.002       298.887       300.326        299.91       297.994
      301.002       298.877       300.313       299.941        297.98
      302.001       298.881       300.299       299.961       297.975
      303.002       298.898       300.287       299.982       297.978
          304       298.927       300.274       299.994        297.99
          305       298.965       300.261       299.983       298.008
          306       299.004       300.249       299.942        298.03
          307       299.042       300.239       299.856       298.054
      308.002       299.075       300.231       299.744       298.076
          309       299.102       300.226       299.639       298.095
      310.001       299.125       300.223       299.549       298.108
          311       299.146       300.221       299.478       298.115
          312       299.164       300.221       299.436       298.115
          313       299.181       300.221        299.42       298.109
      314.001       299.195       300.222       299.421       298.098
      314.999       299.206       300.224       299.441       298.082
      316.002       299.214       300.223       299.485       298.062
      317.002       299.218       300.216       299.553       298.037
      318.002        299.22       300.207       299.647       298.008
          319       299.218       300.194       299.747       297.979
      320.001       299.213       300.179        299.83       297.953
          321       299.205       300.163       299.871       297.934
          322       299.194       300.148       299.865       297.924
          323        299.18       300.134       299.823       297.926
      324.002       299.163       300.121       299.744       297.938
      325.001       299.146        300.11       299.628        297.96
          326       299.128       300.103       299.472       297.989
          327       299.111       300.097       299.287       298.025
      328.002       299.095       300.092       299.109       298.069
          329       299.083        300.09       298.958       298.115
      330.001       299.077       300.092        298.83       298.155
          331       299.078         300.1       298.739       298.181
      332.001       299.085       300.114       298.709       298.191
      333.002       299.095       300.131        298.73       298.185
      334.002       299.107       300.149       298.781       298.168
      335.001       299.118       300.159       298.845       298.142
          336       299.126       300.168       298.918       298.113
      337.001       299.128       300.175       299.003       298.081
      338.002       299.125       300.178       299.092       298.047
          339       299.112       300.178       299.187       298.011
      340.002       299.089        300.17       299.294       297.978
      341.001       299.058       300.157       299.392       297.949
          342        299.02        300.14       299.465       297.922
      342.999       298.978       300.124       299.518       297.901
      344.002       298.934       300.112       299.539       297.884
          345       298.891       300.101       299.541        297.87
      346.002       298.852       300.089       299.544       297.865
          347       298.821       300.078       299.528       297.872
      348.001       298.802       300.068       299.465       297.892
      349.002       298.791       300.059       299.374       297.922
          350        298.79       300.051       299.293       297.957
      351.002       298.798       300.046        299.22        297.99
          352       298.816       300.046       299.113       298.016
      353.002       298.841        300.05       298.999        298.03
      354.001       298.868       300.055       298.919       298.031
          355       298.896       300.063       298.862       298.019
      356.001       298.922       300.073       298.804       297.998
          357       298.943       300.082       298.753       297.972
      358.001       298.957       300.091       298.738       297.943
      358.999       298.962       300.097       298.767       297.913
      360.001       298.959         300.1       298.834       297.884
      361.002       298.948       300.099       298.933       297.856
      362.001        298.93       300.094       299.053       297.827
          363       298.907       300.085        299.19       297.798
      364.002       298.883       300.073        299.33       297.768
      365.002       298.858       300.059       299.457       297.739
      365.999       298.837       300.042        299.56       297.711
      367.001        298.82       300.025        299.63        297.69
          368       298.809       300.009        299.66       297.677
      369.002       298.802       299.992       299.652       297.673
      370.002       298.798       299.977       299.608       297.681
      371.002       298.798       299.963       299.529       297.699
      372.002         298.8       299.952       299.422       297.724
      373.001       298.806       299.942       299.296       297.755
      374.001       298.815       299.934       299.153       297.787
          375       298.828       299.931       299.011       297.819
          376       298.845        299.93       298.886       297.846
      377.002       298.865       299.932       298.792       297.863
      378.002       298.887       299.939        298.73        297.87
          379       298.908       299.949       298.692       297.865
          380       298.926       299.958       298.674        297.85
      381.001       298.941       299.964       298.686       297.827
      382.001       298.951        299.97       298.742       297.799
      383.001       298.956       299.971       298.843        297.77
      384.001       298.956       299.968       298.979       297.738
      385.002        298.95       299.959       299.122       297.708
          386       298.937       299.943       299.249       297.681
      387.001       298.919       299.925       299.348       297.658
          388       298.896       299.909       299.414       297.639
      389.002       298.869       299.894       299.447       297.621
          390       298.839       299.883       299.443       297.609
      391.002       298.809       299.872       299.393       297.605
          392       298.779       299.861       299.292       297.613
      393.001       298.749        299.85        299.15       297.636
      394.001       298.722       299.839       298.971       297.679
          395       298.701        299.83       298.772       297.735
      396.001       298.688       299.825        298.59       297.797
      397.002       298.686       299.825        298.45       297.854
      398.002       298.699       299.828       298.357       297.897
      399.002       298.722       299.836       298.303       297.922
      400.002        298.75       299.847       298.279       297.927
      401.001       298.777       299.861        298.27       297.915
      402.002       298.801       299.873       298.268       297.889
      403.002        298.82       299.885       298.267       297.855
          404       298.831       299.898       298.275       297.819
          405       298.833       299.914       298.318       297.784
      406.002       298.822       299.926       298.408       297.749
      407.002       298.798       299.933        298.54       297.716
      408.001       298.761       299.931       298.688       297.686
      409.001       298.714       299.924       298.836       297.656
      410.002       298.662       299.913        298.97       297.626
          411       298.609       299.898       299.079       297.596
      412.001       298.561       299.881       299.169       297.565
          413       298.521       299.865       299.237       297.537
      414.002       298.492       299.849       299.283       297.515
      415.001       298.476       299.832       299.298       297.504
      416.002       298.472       299.816       299.272       297.509
          417       298.477       299.799       299.202       297.531
      418.001       298.489       299.784       299.095       297.566
      419.002       298.505       299.773       298.974       297.607
      420.001       298.526       299.768       298.856       297.643
          421       298.551       299.765       298.739       297.671
      422.002       298.582       299.764       298.634       297.686
      423.002       298.614       299.766       298.536        297.69
      424.001       298.645        299.77       298.436       297.683
      425.001       298.673       299.777       298.349       297.669